
                                 *****************
                                 * O   R   C   A *
                                 *****************

           --- An Ab Initio, DFT and Semiempirical electronic structure package ---

                  #######################################################
                  #                        -***-                        #
                  #  Department of molecular theory and spectroscopy    #
                  #              Directorship: Frank Neese              #
                  # Max Planck Institute for Chemical Energy Conversion #
                  #                  D-45470 Muelheim/Ruhr              #
                  #                       Germany                       #
                  #                                                     #
                  #                  All rights reserved                #
                  #                        -***-                        #
                  #######################################################


                         Program Version 4.0.1 -  RELEASE  -


 With contributions from (in alphabetic order):
   Daniel Aravena         : Magnetic Properties
   Michael Atanasov       : Ab Initio Ligand Field Theory
   Ute Becker             : Parallelization
   Martin Brehm           : Molecular dynamics
   Dmytro Bykov           : SCF Hessian
   Vijay G. Chilkuri      : MRCI spin determinant printing
   Dipayan Datta          : RHF DLPNO-CCSD density
   Achintya Kumar Dutta   : EOM-CC, STEOM-CC
   Dmitry Ganyushin       : Spin-Orbit,Spin-Spin,Magnetic field MRCI
   Yang Guo               : DLPNO-NEVPT2, CIM, IAO-localization
   Andreas Hansen         : Spin unrestricted coupled pair/coupled cluster methods
   Lee Huntington         : MR-EOM, pCC
   Robert Izsak           : Overlap fitted RIJCOSX, COSX-SCS-MP3, EOM
   Christian Kollmar      : KDIIS, OOCD, Brueckner-CCSD(T), CCSD density
   Simone Kossmann        : Meta GGA functionals, TD-DFT gradient, OOMP2, MP2 Hessian
   Martin Krupicka        : AUTO-CI
   Dagmar Lenk            : GEPOL surface
   Dimitrios Liakos       : Extrapolation schemes; parallel MDCI
   Dimitrios Manganas     : ROCIS; embedding schemes
   Dimitrios Pantazis     : SARC Basis sets
   Taras Petrenko         : DFT Hessian,TD-DFT gradient, ASA, ECA, R-Raman, ABS, FL, XAS/XES, NRVS
   Peter Pinski           : DLPNO-MP2
   Christoph Reimann      : Effective Core Potentials
   Marius Retegan         : Local ZFS, SOC
   Christoph Riplinger    : Optimizer, TS searches, QM/MM, DLPNO-CCSD(T), (RO)-DLPNO pert. Triples
   Tobias Risthaus        : Range-separated hybrids, TD-DFT gradient, RPA, STAB
   Michael Roemelt        : Restricted open shell CIS
   Masaaki Saitow         : Open-shell DLPNO
   Barbara Sandhoefer     : DKH picture change effects
   Kantharuban Sivalingam : CASSCF convergence, NEVPT2, FIC-MRCI
   Georgi Stoychev        : AutoAux
   Boris Wezisla          : Elementary symmetry handling
   Frank Wennmohs         : Technical directorship


 We gratefully acknowledge several colleagues who have allowed us to
 interface, adapt or use parts of their codes:
   Stefan Grimme, W. Hujo, H. Kruse,             : VdW corrections, initial TS optimization,
                  C. Bannwarth                     DFT functionals, gCP, sTDA/sTD-DF
   Ed Valeev                                     : LibInt (2-el integral package), F12 methods
   Garnet Chan, S. Sharma, J. Yang, R. Olivares  : DMRG
   Ulf Ekstrom                                   : XCFun DFT Library
   Mihaly Kallay                                 : mrcc  (arbitrary order and MRCC methods)
   Andreas Klamt, Michael Diedenhofen            : otool_cosmo (COSMO solvation model)
   Jiri Pittner, Ondrej Demel                    : Mk-CCSD
   Frank Weinhold                                : gennbo (NPA and NBO analysis)
   Christopher J. Cramer and Donald G. Truhlar   : smd solvation model


 Your calculation uses the libint2 library for the computation of 2-el integrals
 For citations please refer to: http://libint.valeyev.net

 This ORCA versions uses:
   CBLAS   interface :  Fast vector & matrix operations
   LAPACKE interface :  Fast linear algebra routines
   SCALAPACK package :  Parallel linear algebra routines




*****************************************
The coordinations will be read from file: etanol.xyz
*****************************************


Your calculation utilizes the basis: 6-31G(d,p)
   H-He, Li-Ne : W. J. Hehre, R. Ditchfield and J.A. Pople, J. Chem. Phys. 56, 2257 (1972).
                 Note: He and Ne are unpublished basis sets taken from the Gaussian program.
                 Note: Li and B from J. D. Dill and J. A. Pople, J. Chem. Phys. 62, 2921 (1975).
   Na - Ar     : M. M. Francl, W. J. Pietro, W. J. Hehre, J. S. Binkley, M. S. Gordon, 
                 D. J. DeFrees and J. A. Pople, J. Chem. Phys. 77, 3654 (1982).
   K - Zn      : V. A. Rassolov, J. A. Pople, M. A. Ratner, and T. L. Windus, J. Chem. Phys. 109, 1223 (1998).

================================================================================
                                        WARNINGS
                       Please study these warnings very carefully!
================================================================================

Warning: TCutStore was < 0. Adjusted to Thresh (uncritical)

INFO   : the flag for use of LIBINT has been found!

================================================================================
                                       INPUT FILE
================================================================================
NAME = etanol.inp
|  1> ! B3LYP 6-31G(d,p) Freq
|  2> 
|  3> * xyzfile 0 1 etanol.xyz
|  4> 
|  5>                          ****END OF INPUT****
================================================================================

                       ****************************
                       * Single Point Calculation *
                       ****************************

---------------------------------
CARTESIAN COORDINATES (ANGSTROEM)
---------------------------------
  C     -4.700090   -0.410710    0.015500
  C     -3.793590    0.799580   -0.053880
  H     -5.689480   -0.136500    0.392070
  H     -4.272070   -1.176320    0.671050
  H     -4.812210   -0.866070   -0.974040
  O     -2.523780    0.398750   -0.546410
  H     -3.663510    1.239310    0.939490
  H     -4.210930    1.553750   -0.727750
  H     -1.966270    1.194760   -0.579340

----------------------------
CARTESIAN COORDINATES (A.U.)
----------------------------
  NO LB      ZA    FRAG     MASS         X           Y           Z
   0 C     6.0000    0    12.011   -8.881883   -0.776129    0.029291
   1 C     6.0000    0    12.011   -7.168846    1.510987   -0.101818
   2 H     1.0000    0     1.008  -10.751559   -0.257948    0.740905
   3 H     1.0000    0     1.008   -8.073042   -2.222923    1.268101
   4 H     1.0000    0     1.008   -9.093759   -1.636635   -1.840669
   5 O     8.0000    0    15.999   -4.769253    0.753528   -1.032565
   6 H     1.0000    0     1.008   -6.923031    2.341956    1.775379
   7 H     1.0000    0     1.008   -7.957504    2.936162   -1.375248
   8 H     1.0000    0     1.008   -3.715712    2.257769   -1.094794

--------------------------------
INTERNAL COORDINATES (ANGSTROEM)
--------------------------------
 C      0   0   0     0.000000000000     0.00000000     0.00000000
 C      1   0   0     1.513723131388     0.00000000     0.00000000
 H      1   2   0     1.093566944041   110.92244993     0.00000000
 H      1   2   3     1.095036800751   110.63270179   239.12098640
 H      1   2   3     1.095040198166   110.63293378   120.87965227
 O      2   1   3     1.419742204029   109.01287329   180.00028381
 H      2   1   3     1.094105678717   110.54411678    60.46444696
 H      2   1   3     1.094095901372   110.54432599   299.53601470
 H      6   2   1     0.972385574297   107.06320761   179.99974418

---------------------------
INTERNAL COORDINATES (A.U.)
---------------------------
 C      0   0   0     0.000000000000     0.00000000     0.00000000
 C      1   0   0     2.860522160906     0.00000000     0.00000000
 H      1   2   0     2.066542033347   110.92244993     0.00000000
 H      1   2   3     2.069319659986   110.63270179   239.12098640
 H      1   2   3     2.069326080169   110.63293378   120.87965227
 O      2   1   3     2.682923946384   109.01287329   180.00028381
 H      2   1   3     2.067560094342   110.54411678    60.46444696
 H      2   1   3     2.067541617840   110.54432599   299.53601470
 H      6   2   1     1.837542431996   107.06320761   179.99974418

---------------------
BASIS SET INFORMATION
---------------------
There are 3 groups of distinct atoms

 Group   1 Type C   : 10s4p1d contracted to 3s2p1d pattern {631/31/1}
 Group   2 Type H   : 4s1p contracted to 2s1p pattern {31/1}
 Group   3 Type O   : 10s4p1d contracted to 3s2p1d pattern {631/31/1}

Atom   0C    basis set group =>   1
Atom   1C    basis set group =>   1
Atom   2H    basis set group =>   2
Atom   3H    basis set group =>   2
Atom   4H    basis set group =>   2
Atom   5O    basis set group =>   3
Atom   6H    basis set group =>   2
Atom   7H    basis set group =>   2
Atom   8H    basis set group =>   2
------------------------------------------------------------------------------
                           ORCA GTO INTEGRAL CALCULATION
------------------------------------------------------------------------------

                         BASIS SET STATISTICS AND STARTUP INFO

 # of primitive gaussian shells          ...   75
 # of primitive gaussian functions       ...  123
 # of contracted shells                  ...   36
 # of contracted basis functions         ...   72
 Highest angular momentum                ...    2
 Maximum contraction depth               ...    6
 Integral package used                   ... LIBINT
 Integral threshhold            Thresh   ...  1.000e-10
 Primitive cut-off              TCut     ...  1.000e-11


------------------------------ INTEGRAL EVALUATION ----------------------------


 * One electron integrals 
 Pre-screening matrix                    ... done
 Shell pair data                         ... done (   0.001 sec)

-------------------------------------------------------------------------------
                                 ORCA SCF
-------------------------------------------------------------------------------

------------
SCF SETTINGS
------------
Hamiltonian:
 Density Functional     Method          .... DFT(GTOs)
 Exchange Functional    Exchange        .... B88
   X-Alpha parameter    XAlpha          ....  0.666667
   Becke's b parameter  XBeta           ....  0.004200
 Correlation Functional Correlation     .... LYP
 LDA part of GGA corr.  LDAOpt          .... VWN-5
 Gradients option       PostSCFGGA      .... off
 Hybrid DFT is turned on
   Fraction HF Exchange ScalHFX         ....  0.200000
   Scaling of DF-GGA-X  ScalDFX         ....  0.720000
   Scaling of DF-GGA-C  ScalDFC         ....  0.810000
   Scaling of DF-LDA-C  ScalLDAC        ....  1.000000
   Perturbative correction              ....  0.000000
   NL short-range parameter             ....  4.800000


General Settings:
 Integral files         IntName         .... etanol
 Hartree-Fock type      HFTyp           .... RHF
 Total Charge           Charge          ....    0
 Multiplicity           Mult            ....    1
 Number of Electrons    NEL             ....   26
 Basis Dimension        Dim             ....   72
 Nuclear Repulsion      ENuc            ....     81.8048996759 Eh

Convergence Acceleration:
 DIIS                   CNVDIIS         .... on
   Start iteration      DIISMaxIt       ....    12
   Startup error        DIISStart       ....  0.200000
   # of expansion vecs  DIISMaxEq       ....     5
   Bias factor          DIISBfac        ....   1.050
   Max. coefficient     DIISMaxC        ....  10.000
 Newton-Raphson         CNVNR           .... off
 SOSCF                  CNVSOSCF        .... on
   Start iteration      SOSCFMaxIt      ....   150
   Startup grad/error   SOSCFStart      ....  0.003300
 Level Shifting         CNVShift        .... on
   Level shift para.    LevelShift      ....    0.2500
   Turn off err/grad.   ShiftErr        ....    0.0010
 Zerner damping         CNVZerner       .... off
 Static damping         CNVDamp         .... on
   Fraction old density DampFac         ....    0.7000
   Max. Damping (<1)    DampMax         ....    0.9800
   Min. Damping (>=0)   DampMin         ....    0.0000
   Turn off err/grad.   DampErr         ....    0.1000
 Fernandez-Rico         CNVRico         .... off

SCF Procedure:
 Maximum # iterations   MaxIter         ....   125
 SCF integral mode      SCFMode         .... Direct
   Integral package                     .... LIBINT
 Reset frequeny         DirectResetFreq ....    20
 Integral Threshold     Thresh          ....  1.000e-10 Eh
 Primitive CutOff       TCut            ....  1.000e-11 Eh

Convergence Tolerance:
 Convergence Check Mode ConvCheckMode   .... Total+1el-Energy
 Convergence forced     ConvForced      .... 0
 Energy Change          TolE            ....  1.000e-06 Eh
 1-El. energy change                    ....  1.000e-03 Eh
 Orbital Gradient       TolG            ....  5.000e-05
 Orbital Rotation angle TolX            ....  5.000e-05
 DIIS Error             TolErr          ....  1.000e-06


Diagonalization of the overlap matrix:
Smallest eigenvalue                        ... 6.835e-03
Time for diagonalization                   ...    0.002 sec
Threshold for overlap eigenvalues          ... 1.000e-08
Number of eigenvalues below threshold      ... 0
Time for construction of square roots      ...    0.001 sec
Total time needed                          ...    0.003 sec

-------------------
DFT GRID GENERATION
-------------------

General Integration Accuracy     IntAcc      ...  4.340
Radial Grid Type                 RadialGrid  ... Gauss-Chebyshev
Angular Grid (max. acc.)         AngularGrid ... Lebedev-110
Angular grid pruning method      GridPruning ... 3 (G Style)
Weight generation scheme         WeightScheme... Becke
Basis function cutoff            BFCut       ...    1.0000e-10
Integration weight cutoff        WCut        ...    1.0000e-14
Grids for H and He will be reduced by one unit

# of grid points (after initial pruning)     ...   9792 (   0.0 sec)
# of grid points (after weights+screening)   ...   9365 (   0.0 sec)
nearest neighbour list constructed           ...    0.0 sec
Grid point re-assignment to atoms done       ...    0.0 sec
Grid point division into batches done        ...    0.0 sec
Reduced shell lists constructed in    0.1 sec

Total number of grid points                  ...     9365
Total number of batches                      ...      152
Average number of points per batch           ...       61
Average number of grid points per atom       ...     1041
Average number of shells per batch           ...    29.65 (82.35%)
Average number of basis functions per batch  ...    59.36 (82.44%)
Average number of large shells per batch     ...    25.03 (84.41%)
Average number of large basis fcns per batch ...    49.59 (83.54%)
Maximum spatial batch extension              ...  22.44, 25.60, 22.34 au
Average spatial batch extension              ...   4.36,  4.31,  4.12 au

Time for grid setup =    0.130 sec

------------------------------
INITIAL GUESS: MODEL POTENTIAL
------------------------------
Loading Hartree-Fock densities                     ... done
Calculating cut-offs                               ... done
Setting up the integral package                    ... done
Initializing the effective Hamiltonian             ... done
Starting the Coulomb interaction                   ... done (   0.0 sec)
Reading the grid                                   ... done
Mapping shells                                     ... done
Starting the XC term evaluation                    ... done (   0.1 sec)
  promolecular density results
     # of electrons  =     25.997688462
     EX              =    -20.253257696
     EC              =     -0.846820748
     EX+EC           =    -21.100078445
Transforming the Hamiltonian                       ... done (   0.0 sec)
Diagonalizing the Hamiltonian                      ... done (   0.0 sec)
Back transforming the eigenvectors                 ... done (   0.0 sec)
Now organizing SCF variables                       ... done
                      ------------------
                      INITIAL GUESS DONE (   0.5 sec)
                      ------------------
--------------
SCF ITERATIONS
--------------
ITER       Energy         Delta-E        Max-DP      RMS-DP      [F,P]     Damp
               ***  Starting incremental Fock matrix formation  ***
  0   -154.8084781512   0.000000000000 0.07776549  0.00371187  0.2533719 0.7000
  1   -154.8737426730  -0.065264521790 0.04502910  0.00257098  0.1085391 0.7000
                               ***Turning on DIIS***
  2   -154.8987796578  -0.025036984805 0.06715907  0.00404837  0.0352802 0.0000
  3   -154.9369460023  -0.038166344521 0.02964539  0.00168184  0.0575017 0.0000
  4   -154.9463068492  -0.009360846806 0.00884757  0.00047395  0.0115838 0.0000
  5   -154.9467113301  -0.000404480897 0.00325187  0.00018552  0.0060237 0.0000
                      *** Initiating the SOSCF procedure ***
                           *** Shutting down DIIS ***
                      *** Re-Reading the Fockian *** 
                      *** Removing any level shift *** 
ITER      Energy       Delta-E        Grad      Rot      Max-DP    RMS-DP
  6   -154.94676152  -0.0000501861  0.000276  0.000276  0.001330  0.000076
               *** Restarting incremental Fock matrix formation ***
  7   -154.94676360  -0.0000020808  0.000052  0.000090  0.000131  0.000009
  8   -154.94676359   0.0000000104  0.000063  0.000051  0.000085  0.000005
                 **** Energy Check signals convergence ****
              ***Rediagonalizing the Fockian in SOSCF/NRSCF***

               *****************************************************
               *                     SUCCESS                       *
               *           SCF CONVERGED AFTER   9 CYCLES          *
               *****************************************************

Setting up the final grid:

General Integration Accuracy     IntAcc      ...  4.670
Radial Grid Type                 RadialGrid  ... Gauss-Chebyshev
Angular Grid (max. acc.)         AngularGrid ... Lebedev-302
Angular grid pruning method      GridPruning ... 3 (G Style)
Weight generation scheme         WeightScheme... Becke
Basis function cutoff            BFCut       ...    1.0000e-10
Integration weight cutoff        WCut        ...    1.0000e-14
Grids for H and He will be reduced by one unit

# of grid points (after initial pruning)     ...  39000 (   0.0 sec)
# of grid points (after weights+screening)   ...  37014 (   0.1 sec)
nearest neighbour list constructed           ...    0.0 sec
Grid point re-assignment to atoms done       ...    0.0 sec
Grid point division into batches done        ...    0.2 sec
Reduced shell lists constructed in    0.5 sec

Total number of grid points                  ...    37014
Total number of batches                      ...      583
Average number of points per batch           ...       63
Average number of grid points per atom       ...     4113
Average number of shells per batch           ...    26.92 (74.78%)
Average number of basis functions per batch  ...    53.64 (74.50%)
Average number of large shells per batch     ...    22.18 (82.39%)
Average number of large basis fcns per batch ...    43.66 (81.39%)
Maximum spatial batch extension              ...  17.76, 17.32, 20.93 au
Average spatial batch extension              ...   2.83,  2.81,  2.84 au

Final grid set up in    0.6 sec
Final integration                            ... done (   0.5 sec)
Change in XC energy                          ...    -0.000276999
Integrated number of electrons               ...    25.999985419
Previous integrated no of electrons          ...    26.000030409

----------------
TOTAL SCF ENERGY
----------------

Total Energy       :         -154.94704064 Eh           -4216.32333 eV

Components:
Nuclear Repulsion  :           81.80489968 Eh            2226.02449 eV
Electronic Energy  :         -236.75194032 Eh           -6442.34782 eV
One Electron Energy:         -371.93611566 Eh          -10120.89624 eV
Two Electron Energy:          135.18417534 Eh            3678.54842 eV

Virial components:
Potential Energy   :         -308.96468136 Eh           -8407.35640 eV
Kinetic Energy     :          154.01764071 Eh            4191.03307 eV
Virial Ratio       :            2.00603437


DFT components:
N(Alpha)           :       12.999992709693 electrons
N(Beta)            :       12.999992709693 electrons
N(Total)           :       25.999985419386 electrons
E(X)               :      -16.473945836432 Eh       
E(C)               :       -1.007979024983 Eh       
E(XC)              :      -17.481924861416 Eh       

---------------
SCF CONVERGENCE
---------------

  Last Energy change         ...   -5.8263e-08  Tolerance :   1.0000e-06
  Last MAX-Density change    ...    1.8997e-05  Tolerance :   1.0000e-05
  Last RMS-Density change    ...    8.0634e-07  Tolerance :   1.0000e-06
  Last Orbital Gradient      ...    6.3217e-06  Tolerance :   5.0000e-05
  Last Orbital Rotation      ...    5.6761e-06  Tolerance :   5.0000e-05

             **** THE GBW FILE WAS UPDATED (etanol.gbw) ****
             **** DENSITY FILE WAS UPDATED (etanol.scfp.tmp) ****
             **** ENERGY FILE WAS UPDATED (etanol.en.tmp) ****
----------------
ORBITAL ENERGIES
----------------

  NO   OCC          E(Eh)            E(eV) 
   0   2.0000     -19.126356      -520.4546 
   1   2.0000     -10.217797      -278.0404 
   2   2.0000     -10.163855      -276.5726 
   3   2.0000      -1.003986       -27.3199 
   4   2.0000      -0.739939       -20.1348 
   5   2.0000      -0.601816       -16.3762 
   6   2.0000      -0.502969       -13.6865 
   7   2.0000      -0.458087       -12.4652 
   8   2.0000      -0.393272       -10.7015 
   9   2.0000      -0.376068       -10.2333 
  10   2.0000      -0.356491        -9.7006 
  11   2.0000      -0.319025        -8.6811 
  12   2.0000      -0.255167        -6.9434 
  13   0.0000       0.080471         2.1897 
  14   0.0000       0.125129         3.4049 
  15   0.0000       0.160446         4.3659 
  16   0.0000       0.167511         4.5582 
  17   0.0000       0.178926         4.8688 
  18   0.0000       0.202543         5.5115 
  19   0.0000       0.220099         5.9892 
  20   0.0000       0.244662         6.6576 
  21   0.0000       0.524925        14.2839 
  22   0.0000       0.555262        15.1094 
  23   0.0000       0.560631        15.2555 
  24   0.0000       0.586663        15.9639 
  25   0.0000       0.674310        18.3489 
  26   0.0000       0.674945        18.3662 
  27   0.0000       0.786398        21.3990 
  28   0.0000       0.841819        22.9070 
  29   0.0000       0.864246        23.5173 
  30   0.0000       0.880996        23.9731 
  31   0.0000       0.892478        24.2856 
  32   0.0000       0.923564        25.1315 
  33   0.0000       1.010935        27.5090 
  34   0.0000       1.012267        27.5452 
  35   0.0000       1.022925        27.8352 
  36   0.0000       1.147781        31.2327 
  37   0.0000       1.336882        36.3784 
  38   0.0000       1.376144        37.4468 
  39   0.0000       1.405377        38.2423 
  40   0.0000       1.599010        43.5113 
  41   0.0000       1.611571        43.8531 
  42   0.0000       1.678451        45.6730 
  43   0.0000       1.727315        47.0026 
  44   0.0000       1.877835        51.0985 
  45   0.0000       1.955040        53.1993 
  46   0.0000       1.978319        53.8328 
  47   0.0000       2.048655        55.7467 
  48   0.0000       2.048776        55.7500 
  49   0.0000       2.072114        56.3851 
  50   0.0000       2.093530        56.9678 
  51   0.0000       2.124059        57.7986 
  52   0.0000       2.275710        61.9252 
  53   0.0000       2.312337        62.9219 
  54   0.0000       2.361609        64.2626 
  55   0.0000       2.414170        65.6929 
  56   0.0000       2.460073        66.9420 
  57   0.0000       2.596034        70.6417 
  58   0.0000       2.664215        72.4970 
  59   0.0000       2.703241        73.5589 
  60   0.0000       2.737447        74.4897 
  61   0.0000       2.761037        75.1316 
  62   0.0000       2.812881        76.5424 
  63   0.0000       2.901991        78.9672 
  64   0.0000       2.904293        79.0298 
  65   0.0000       2.981021        81.1177 
  66   0.0000       3.190152        86.8084 
  67   0.0000       3.306202        89.9663 
  68   0.0000       3.390178        92.2514 
  69   0.0000       3.444287        93.7238 
  70   0.0000       3.517692        95.7213 
  71   0.0000       3.534524        96.1793 

                    ********************************
                    * MULLIKEN POPULATION ANALYSIS *
                    ********************************

-----------------------
MULLIKEN ATOMIC CHARGES
-----------------------
   0 C :   -0.313728
   1 C :    0.066046
   2 H :    0.097352
   3 H :    0.116474
   4 H :    0.113600
   5 O :   -0.538242
   6 H :    0.076421
   7 H :    0.078286
   8 H :    0.303791
Sum of atomic charges:    0.0000000

--------------------------------
MULLIKEN REDUCED ORBITAL CHARGES
--------------------------------
  0 C s       :     3.240541  s :     3.240541
      pz      :     1.062673  p :     3.042457
      px      :     0.995554
      py      :     0.984229
      dz2     :     0.005662  d :     0.030730
      dxz     :     0.003884
      dyz     :     0.008807
      dx2y2   :     0.005309
      dxy     :     0.007068
  1 C s       :     3.143279  s :     3.143279
      pz      :     0.979107  p :     2.725807
      px      :     0.761155
      py      :     0.985545
      dz2     :     0.011413  d :     0.064868
      dxz     :     0.013147
      dyz     :     0.012110
      dx2y2   :     0.012894
      dxy     :     0.015304
  2 H s       :     0.891282  s :     0.891282
      pz      :     0.002909  p :     0.011366
      px      :     0.006013
      py      :     0.002444
  3 H s       :     0.872256  s :     0.872256
      pz      :     0.003898  p :     0.011270
      px      :     0.002962
      py      :     0.004409
  4 H s       :     0.875098  s :     0.875098
      pz      :     0.005937  p :     0.011301
      px      :     0.002353
      py      :     0.003011
  5 O s       :     3.842361  s :     3.842361
      pz      :     1.858512  p :     4.673368
      px      :     1.292063
      py      :     1.522792
      dz2     :     0.003695  d :     0.022513
      dxz     :     0.003067
      dyz     :     0.002460
      dx2y2   :     0.004567
      dxy     :     0.008725
  6 H s       :     0.912887  s :     0.912887
      pz      :     0.006101  p :     0.010691
      px      :     0.001600
      py      :     0.002991
  7 H s       :     0.911032  s :     0.911032
      pz      :     0.003854  p :     0.010682
      px      :     0.002399
      py      :     0.004428
  8 H s       :     0.658079  s :     0.658079
      pz      :     0.010128  p :     0.038130
      px      :     0.011764
      py      :     0.016238


                     *******************************
                     * LOEWDIN POPULATION ANALYSIS *
                     *******************************

----------------------
LOEWDIN ATOMIC CHARGES
----------------------
   0 C :   -0.203779
   1 C :    0.003270
   2 H :    0.072109
   3 H :    0.075437
   4 H :    0.074743
   5 O :   -0.280340
   6 H :    0.045873
   7 H :    0.046227
   8 H :    0.166460

-------------------------------
LOEWDIN REDUCED ORBITAL CHARGES
-------------------------------
  0 C s       :     2.917697  s :     2.917697
      pz      :     1.100011  p :     3.223004
      px      :     1.065131
      py      :     1.057862
      dz2     :     0.011521  d :     0.063078
      dxz     :     0.007223
      dyz     :     0.016991
      dx2y2   :     0.011057
      dxy     :     0.016286
  1 C s       :     2.886802  s :     2.886802
      pz      :     1.046612  p :     2.969734
      px      :     0.872057
      py      :     1.051065
      dz2     :     0.024709  d :     0.140194
      dxz     :     0.027809
      dyz     :     0.024578
      dx2y2   :     0.026608
      dxy     :     0.036490
  2 H s       :     0.889489  s :     0.889489
      pz      :     0.009122  p :     0.038401
      px      :     0.021595
      py      :     0.007685
  3 H s       :     0.885955  s :     0.885955
      pz      :     0.013205  p :     0.038607
      px      :     0.009395
      py      :     0.016007
  4 H s       :     0.886663  s :     0.886663
      pz      :     0.021882  p :     0.038594
      px      :     0.006642
      py      :     0.010070
  5 O s       :     3.510164  s :     3.510164
      pz      :     1.845081  p :     4.725206
      px      :     1.331500
      py      :     1.548624
      dz2     :     0.006764  d :     0.044970
      dxz     :     0.007240
      dyz     :     0.002838
      dx2y2   :     0.009536
      dxy     :     0.018592
  6 H s       :     0.916298  s :     0.916298
      pz      :     0.023010  p :     0.037829
      px      :     0.005467
      py      :     0.009353
  7 H s       :     0.915936  s :     0.915936
      pz      :     0.013517  p :     0.037837
      px      :     0.008943
      py      :     0.015377
  8 H s       :     0.718858  s :     0.718858
      pz      :     0.029106  p :     0.114681
      px      :     0.033219
      py      :     0.052356


                      *****************************
                      * MAYER POPULATION ANALYSIS *
                      *****************************

  NA   - Mulliken gross atomic population
  ZA   - Total nuclear charge
  QA   - Mulliken gross atomic charge
  VA   - Mayer's total valence
  BVA  - Mayer's bonded valence
  FA   - Mayer's free valence

  ATOM       NA         ZA         QA         VA         BVA        FA
  0 C      6.3137     6.0000    -0.3137     3.8969     3.8969    -0.0000
  1 C      5.9340     6.0000     0.0660     3.8775     3.8775    -0.0000
  2 H      0.9026     1.0000     0.0974     0.9565     0.9565     0.0000
  3 H      0.8835     1.0000     0.1165     0.9562     0.9562    -0.0000
  4 H      0.8864     1.0000     0.1136     0.9566     0.9566     0.0000
  5 O      8.5382     8.0000    -0.5382     1.8658     1.8658     0.0000
  6 H      0.9236     1.0000     0.0764     0.9433     0.9433     0.0000
  7 H      0.9217     1.0000     0.0783     0.9431     0.9431     0.0000
  8 H      0.6962     1.0000     0.3038     0.9015     0.9015     0.0000

  Mayer bond orders larger than 0.1
B(  0-C ,  1-C ) :   1.0245 B(  0-C ,  2-H ) :   0.9606 B(  0-C ,  3-H ) :   0.9635 
B(  0-C ,  4-H ) :   0.9635 B(  1-C ,  5-O ) :   0.9572 B(  1-C ,  6-H ) :   0.9482 
B(  1-C ,  7-H ) :   0.9486 B(  5-O ,  8-H ) :   0.8853 

-------
TIMINGS
-------

Total SCF time: 0 days 0 hours 0 min 11 sec 

Total time                  ....      11.588 sec
Sum of individual times     ....      11.566 sec  ( 99.8%)

Fock matrix formation       ....      10.449 sec  ( 90.2%)
  XC integration            ....       1.960 sec  ( 18.8% of F)
    Basis function eval.    ....       0.875 sec  ( 44.6% of XC)
    Density eval.           ....       0.361 sec  ( 18.4% of XC)
    XC-Functional eval.     ....       0.242 sec  ( 12.3% of XC)
    XC-Potential eval.      ....       0.383 sec  ( 19.5% of XC)
Diagonalization             ....       0.018 sec  (  0.2%)
Density matrix formation    ....       0.001 sec  (  0.0%)
Population analysis         ....       0.003 sec  (  0.0%)
Initial guess               ....       0.338 sec  (  2.9%)
Orbital Transformation      ....       0.000 sec  (  0.0%)
Orbital Orthonormalization  ....       0.000 sec  (  0.0%)
DIIS solution               ....       0.005 sec  (  0.0%)
SOSCF solution              ....       0.007 sec  (  0.1%)
Grid generation             ....       0.746 sec  (  6.4%)

-------------------------   --------------------
FINAL SINGLE POINT ENERGY      -154.947040643931
-------------------------   --------------------


                            ***************************************
                            *     ORCA property calculations      *
                            ***************************************

                                    ---------------------
                                    Active property flags
                                    ---------------------
   (+) Dipole Moment


------------------------------------------------------------------------------
                       ORCA ELECTRIC PROPERTIES CALCULATION
------------------------------------------------------------------------------

Dipole Moment Calculation                       ... on
Quadrupole Moment Calculation                   ... off
Polarizability Calculation                      ... off
GBWName                                         ... etanol.gbw
Electron density file                           ... etanol.scfp.tmp
The origin for moment calculation is the CENTER OF MASS  = (-6.858740,  0.528073 -0.389018)

-------------
DIPOLE MOMENT
-------------
                                X             Y             Z
Electronic contribution:      2.51320       0.44533      -0.74055
Nuclear contribution   :     -2.64576       0.12585       0.89246
                        -----------------------------------------
Total Dipole Moment    :     -0.13255       0.57118       0.15191
                        -----------------------------------------
Magnitude (a.u.)       :      0.60572
Magnitude (Debye)      :      1.53962


-------------------------------------------------------------------------------
                               ORCA SCF HESSIAN
-------------------------------------------------------------------------------

Hessian of the Kohn-Sham DFT energy:
Kohn-Sham wavefunction type                      ... RKS
Hartree-Fock exchange scaling                    ...    0.200
Number of operators                              ...    1
Number of atoms                                  ...    9
Basis set dimensions                             ...   72
Integral neglect threshold                       ... 1.0e-10
Integral primitive cutoff                        ... 1.0e-11

Setting up DFT Hessian calculations              ... 
Electron density on the grid                     ... found on disk
Electron density on the final grid               ... found on disk
Building xc-kernel on the grid                   ... done   (      0.0 sec)
Building xc-kernel on the final grid             ... done   (      0.1 sec)
                                                     done   (      0.2 sec)

Nuclear repulsion Hessian                        ... done   (      0.0 sec)

----------------------------------------------
Forming right-hand sides of CP-SCF equations     ...
----------------------------------------------
One electron integral derivatives                ... done   (      0.2 sec)
Transforming the overlap derivative matrices     ... done   (      0.0 sec)
Making the Q(x) pseudodensities                  ... done   (      0.0 sec)
Adding the E*S(x)*S(y) terms to the Hessian      ... done   (      0.0 sec)
Calculating energy weighted overlap derivatives  ... done   (      0.0 sec)
Two electron integral derivatives                ... done   (      3.5 sec)
Exchange-correlation integral derivatives        ... done   (     15.9 sec)
tr(F(y)Q(x)) contribution to the Hessian         ... done   (      0.0 sec)
Response fock operator R(S(x))                   ... done   (      7.5 sec)
XC Response fock operator R(S(x))                ... done   (      5.9 sec)
tr(F(y)S(x)) contribution to the Hessian         ... done   (      0.0 sec)
Transforming and finalizing RHSs                 ... done   (      0.0 sec)

----------------------------------------------
Solving the CP-SCF equations                     ...
----------------------------------------------
     CP-SCF ITERATION   0: 
     CP-SCF ITERATION   1:      0.000535171590
     CP-SCF ITERATION   2:      0.000042279559
     CP-SCF ITERATION   3:      0.000002580940
     CP-SCF ITERATION   4:      0.000000872886

                                                 ... done   (     53.3 sec)
Forming perturbed density Hessian contributions  ... done   (      0.0 sec)
Making the perturbed densities                   ... done   (      0.0 sec)
2nd integral derivative contribs                 ... done   (     23.2 sec)
Exchange-correlation Hessian                     ... done   (     20.2 sec)
Dipol derivatives                                ... done   (      0.4 sec)

Total SCF Hessian time: 0 days 0 hours 2 min 10 sec 

Writing the Hessian file to the disk             ... done


-----------------------
VIBRATIONAL FREQUENCIES
-----------------------

   0:         0.00 cm**-1
   1:         0.00 cm**-1
   2:         0.00 cm**-1
   3:         0.00 cm**-1
   4:         0.00 cm**-1
   5:         0.00 cm**-1
   6:       241.41 cm**-1
   7:       413.47 cm**-1
   8:       429.63 cm**-1
   9:       809.74 cm**-1
  10:       911.33 cm**-1
  11:      1055.98 cm**-1
  12:      1147.26 cm**-1
  13:      1187.73 cm**-1
  14:      1302.48 cm**-1
  15:      1305.44 cm**-1
  16:      1415.58 cm**-1
  17:      1474.12 cm**-1
  18:      1492.59 cm**-1
  19:      1513.62 cm**-1
  20:      1530.78 cm**-1
  21:      3040.17 cm**-1
  22:      3052.32 cm**-1
  23:      3078.29 cm**-1
  24:      3121.87 cm**-1
  25:      3135.38 cm**-1
  26:      3725.99 cm**-1


------------
NORMAL MODES
------------

These modes are the cartesian displacements weighted by the diagonal matrix
M(i,i)=1/sqrt(m[i]) where m[i] is the mass of the displaced atom
Thus, these vectors are normalized but *not* orthogonal

                  0          1          2          3          4          5    
      0       0.000000   0.000000   0.000000   0.000000   0.000000   0.000000
      1       0.000000   0.000000   0.000000   0.000000   0.000000   0.000000
      2       0.000000   0.000000   0.000000   0.000000   0.000000   0.000000
      3       0.000000   0.000000   0.000000   0.000000   0.000000   0.000000
      4       0.000000   0.000000   0.000000   0.000000   0.000000   0.000000
      5       0.000000   0.000000   0.000000   0.000000   0.000000   0.000000
      6       0.000000   0.000000   0.000000   0.000000   0.000000   0.000000
      7       0.000000   0.000000   0.000000   0.000000   0.000000   0.000000
      8       0.000000   0.000000   0.000000   0.000000   0.000000   0.000000
      9       0.000000   0.000000   0.000000   0.000000   0.000000   0.000000
     10       0.000000   0.000000   0.000000   0.000000   0.000000   0.000000
     11       0.000000   0.000000   0.000000   0.000000   0.000000   0.000000
     12       0.000000   0.000000   0.000000   0.000000   0.000000   0.000000
     13       0.000000   0.000000   0.000000   0.000000   0.000000   0.000000
     14       0.000000   0.000000   0.000000   0.000000   0.000000   0.000000
     15       0.000000   0.000000   0.000000   0.000000   0.000000   0.000000
     16       0.000000   0.000000   0.000000   0.000000   0.000000   0.000000
     17       0.000000   0.000000   0.000000   0.000000   0.000000   0.000000
     18       0.000000   0.000000   0.000000   0.000000   0.000000   0.000000
     19       0.000000   0.000000   0.000000   0.000000   0.000000   0.000000
     20       0.000000   0.000000   0.000000   0.000000   0.000000   0.000000
     21       0.000000   0.000000   0.000000   0.000000   0.000000   0.000000
     22       0.000000   0.000000   0.000000   0.000000   0.000000   0.000000
     23       0.000000   0.000000   0.000000   0.000000   0.000000   0.000000
     24       0.000000   0.000000   0.000000   0.000000   0.000000   0.000000
     25       0.000000   0.000000   0.000000   0.000000   0.000000   0.000000
     26       0.000000   0.000000   0.000000   0.000000   0.000000   0.000000
                  6          7          8          9         10         11    
      0       0.000943   0.189941   0.007408   0.014238   0.189726  -0.020428
      1      -0.000476   0.031974  -0.005565  -0.008082   0.070857  -0.197114
      2       0.002586  -0.055652   0.028501   0.042968  -0.049041  -0.030393
      3       0.021897  -0.048113  -0.011446   0.019353   0.041127   0.131237
      4      -0.012497   0.176000   0.005178  -0.011008  -0.132977   0.175120
      5       0.066721   0.047972  -0.036944   0.058794  -0.038623  -0.010269
      6      -0.182118   0.058571   0.016145  -0.055259   0.391951   0.091343
      7       0.104446  -0.408557  -0.005682   0.032026   0.734203   0.206153
      8      -0.555153  -0.094113   0.051686  -0.168894   0.010251   0.008938
      9      -0.332403   0.470790   0.051533  -0.269728  -0.172242  -0.375681
     10       0.153767   0.112920   0.029994  -0.353329   0.013034  -0.284936
     11       0.397579  -0.144646   0.040331  -0.179935   0.111655   0.100555
     12       0.481906   0.474686  -0.030815   0.153432  -0.202459  -0.393146
     13      -0.239196   0.107107  -0.049032   0.419645   0.029625  -0.274340
     14       0.055992  -0.122425   0.052215  -0.172956   0.019835   0.046403
     15      -0.020403  -0.176476  -0.016890  -0.006754  -0.145890  -0.071824
     16       0.011586  -0.147026   0.012019   0.003812   0.020014   0.038109
     17      -0.061814   0.028828  -0.056511  -0.020313   0.051734   0.030846
     18       0.090585   0.020669   0.006871   0.051041  -0.163396   0.034920
     19      -0.096641   0.182679   0.005433   0.468512  -0.176551   0.169515
     20       0.095601   0.036326  -0.041863  -0.164059   0.018493   0.014931
     21      -0.008170   0.014546  -0.030450  -0.187157  -0.162440   0.037707
     22       0.049539   0.185747   0.004327  -0.391422  -0.176634   0.168666
     23       0.155665   0.019475  -0.029493  -0.248630   0.022282   0.025492
     24       0.001889   0.071785   0.302912   0.014621  -0.126615   0.424474
     25      -0.001236  -0.324446  -0.171204  -0.008468  -0.001143  -0.327843
     26       0.005590  -0.060658   0.924672   0.044308   0.040941  -0.201374
                 12         13         14         15         16         17    
      0       0.096002  -0.035669   0.046916  -0.021360   0.075018   0.069017
      1      -0.019638   0.020173  -0.058059   0.009219   0.106300   0.053617
      2      -0.035390  -0.108504  -0.017123  -0.079953  -0.004505  -0.012796
      3      -0.265082   0.053966  -0.044114   0.002589   0.041772  -0.127895
      4       0.096735  -0.030844   0.059997   0.002410   0.026682  -0.103331
      5       0.105316   0.164447   0.023439   0.021219  -0.008584   0.022506
      6       0.216962   0.070256   0.093363   0.043882  -0.141571  -0.025833
      7       0.412520  -0.039575   0.136404  -0.008107  -0.559969  -0.242855
      8       0.007007   0.213511  -0.017359   0.106090  -0.059698  -0.036809
      9      -0.181934   0.175635  -0.173071   0.091838  -0.418022  -0.217918
     10      -0.008626   0.317131  -0.082603   0.200326  -0.252903  -0.038772
     11       0.142121   0.115808   0.092787   0.070537  -0.080876   0.064234
     12      -0.230288  -0.110995  -0.186565  -0.093041  -0.320964  -0.217744
     13       0.017972  -0.354387  -0.018425  -0.229199  -0.309355  -0.039653
     14      -0.004498   0.082637  -0.005724   0.039266   0.217591   0.064284
     15       0.170993  -0.016654   0.011579   0.010695   0.004410  -0.013220
     16      -0.070419   0.009597  -0.054375  -0.010875  -0.023406   0.059288
     17      -0.069425  -0.050505  -0.017457   0.027560  -0.005962   0.015648
     18      -0.405515  -0.388532   0.250872   0.636506  -0.213788   0.485433
     19      -0.033194   0.389889   0.188268   0.205866  -0.093814   0.116190
     20       0.158072   0.036363  -0.066197  -0.158261   0.075659  -0.162513
     21      -0.424695   0.295705   0.385349  -0.570506  -0.224349   0.495480
     22      -0.023243  -0.335814   0.221685  -0.171880  -0.085727   0.106760
     23       0.103974  -0.326141  -0.068123   0.170098   0.034259  -0.117390
     24       0.326178   0.004247  -0.587114  -0.054768  -0.142939   0.391986
     25      -0.166399  -0.002406   0.394620   0.037034   0.088707  -0.250325
     26      -0.137983   0.012836   0.266430   0.034692   0.063665  -0.175888
                 18         19         20         21         22         23    
      0       0.014704  -0.014283   0.020447  -0.006468  -0.025243   0.008538
      1      -0.008494   0.033796  -0.027325   0.002201  -0.043750  -0.005053
      2       0.044874   0.010926  -0.011782   0.002641  -0.000220   0.026271
      3       0.007095  -0.011498   0.035665   0.010557   0.000740  -0.027952
      4      -0.004132  -0.058681  -0.055310  -0.061858   0.004825   0.016209
      5       0.022127  -0.007146  -0.021999  -0.015338   0.000847  -0.085016
      6      -0.217071   0.047533  -0.057941   0.082579   0.472455   0.003805
      7       0.126057   0.190981  -0.252175  -0.029249  -0.138272  -0.001734
      8      -0.662402   0.021105  -0.029832  -0.032529  -0.181152   0.006521
      9       0.453814   0.049694  -0.059271  -0.005212  -0.240933  -0.088769
     10       0.053671  -0.262259   0.292975   0.008607   0.408073   0.151595
     11      -0.192670  -0.358668   0.395576  -0.004277  -0.364381  -0.129128
     12      -0.483666   0.218434  -0.245271  -0.000956   0.058361  -0.018379
     13      -0.037429  -0.359216   0.398993   0.005409   0.237789  -0.088860
     14       0.099205   0.153469  -0.165328   0.007663   0.549154  -0.195288
     15      -0.000618   0.008710   0.002802   0.003156  -0.000178  -0.000019
     16       0.000368  -0.003796  -0.003771  -0.000137   0.000093   0.000014
     17      -0.001832  -0.003608  -0.001680  -0.001067   0.000076  -0.000045
     18       0.010227  -0.179962  -0.263298   0.089147  -0.006630   0.083510
     19       0.044263   0.455750   0.354225   0.265206  -0.017343   0.273386
     20       0.002865  -0.194595  -0.149804   0.645780  -0.038219   0.603667
     21      -0.010368   0.014926  -0.088475  -0.268755   0.013755   0.250698
     22      -0.043594   0.342773   0.253634   0.469512  -0.027832  -0.466964
     23      -0.007529   0.399030   0.379593  -0.445835   0.025195   0.412229
     24      -0.002868   0.018331   0.001170   0.004385  -0.002210   0.000767
     25       0.001627  -0.011255  -0.003134  -0.006464  -0.000076  -0.000570
     26      -0.008756  -0.008113  -0.001014  -0.002571   0.000719   0.002701
                  24         25         26    
      0       0.026252  -0.071304  -0.000225
      1      -0.015089   0.049936   0.000405
      2       0.082840   0.031750   0.000145
      3       0.009181  -0.001810   0.000957
      4      -0.005186   0.006032  -0.002441
      5       0.028058   0.001422  -0.000785
      6       0.014341   0.764115   0.000619
      7      -0.005443  -0.210004  -0.001373
      8       0.011393  -0.290574  -0.000486
      9      -0.264807   0.139312   0.000267
     10       0.469000  -0.255763   0.000982
     11      -0.394052   0.239699  -0.000685
     12      -0.063292  -0.050995   0.000702
     13      -0.283342  -0.139254   0.000749
     14      -0.607490  -0.330254   0.000707
     15      -0.000033   0.000334  -0.037797
     16       0.000014  -0.000141  -0.049560
     17      -0.000095  -0.000126   0.003073
     18      -0.030344  -0.006788   0.003589
     19      -0.087381  -0.020916   0.000626
     20      -0.194936  -0.045987   0.001044
     21      -0.077144   0.020070   0.002453
     22       0.148204  -0.038371   0.001207
     23      -0.133378   0.033959  -0.002504
     24      -0.000432   0.000188   0.583559
     25       0.000318  -0.000345   0.808692
     26      -0.001452  -0.000119  -0.039236


-----------
IR SPECTRUM
-----------

 Mode    freq (cm**-1)   T**2         TX         TY         TZ
-------------------------------------------------------------------
   6:       241.41    1.700836  (  0.391303  -0.218973   1.224651)
   7:       413.47   10.658681  (  3.150537   0.116284  -0.848099)
   8:       429.63  121.833319  (  3.363650  -1.952371  10.329929)
   9:       809.74    0.011593  ( -0.032550  -0.016059  -0.101367)
  10:       911.33    9.796323  (  2.917905  -0.456934  -1.036034)
  11:      1055.98   44.843510  (  6.268291  -0.837459  -2.202431)
  12:      1147.26   35.346008  ( -5.411450   1.350189   2.058934)
  13:      1187.73    5.185227  (  0.710127  -0.400083   2.126236)
  14:      1302.48   88.581115  ( -8.437414   2.610468   3.252170)
  15:      1305.44    0.873023  ( -0.801991   0.258646   0.403654)
  16:      1415.58    1.330952  ( -1.086987  -0.103976   0.372290)
  17:      1474.12   13.584294  ( -1.755801  -3.240315  -0.042580)
  18:      1492.59    4.455854  ( -0.675158   0.403861  -1.958804)
  19:      1513.62    3.084842  (  1.310649  -0.976693  -0.642738)
  20:      1530.78    0.347715  (  0.391496   0.435334  -0.070218)
  21:      3040.17   69.890610  (  2.695702  -7.581160  -2.269320)
  22:      3052.32   13.987123  ( -2.392717  -2.865678   0.223418)
  23:      3078.29   49.571094  ( -2.183088   1.291019  -6.567990)
  24:      3121.87   55.770488  (  2.231121  -1.298545   7.007594)
  25:      3135.38   30.601957  ( -3.929579   3.424801   1.852323)
  26:      3725.99   10.980406  (  2.472088   2.170086  -0.399892)

The first frequency considered to be a vibration is 6
The total number of vibrations considered is 21


--------------------------
THERMOCHEMISTRY AT 298.15K
--------------------------

Temperature         ... 298.15 K
Pressure            ... 1.00 atm
Total Mass          ... 46.07 AMU

Throughout the following assumptions are being made:
  (1) The electronic state is orbitally nondegenerate
  (2) There are no thermally accessible electronically excited states
  (3) Hindered rotations indicated by low frequency modes are not
      treated as such but are treated as vibrations and this may
      cause some error
  (4) All equations used are the standard statistical mechanics
      equations for an ideal gas
  (5) All vibrations are strictly harmonic

freq.     241.41  E(vib)   ...       0.31 
freq.     413.47  E(vib)   ...       0.19 
freq.     429.63  E(vib)   ...       0.18 
freq.     809.74  E(vib)   ...       0.05 
freq.     911.33  E(vib)   ...       0.03 
freq.    1055.98  E(vib)   ...       0.02 
freq.    1147.26  E(vib)   ...       0.01 
freq.    1187.73  E(vib)   ...       0.01 
freq.    1302.48  E(vib)   ...       0.01 
freq.    1305.44  E(vib)   ...       0.01 
freq.    1415.58  E(vib)   ...       0.00 
freq.    1474.12  E(vib)   ...       0.00 
freq.    1492.59  E(vib)   ...       0.00 
freq.    1513.62  E(vib)   ...       0.00 
freq.    1530.78  E(vib)   ...       0.00 
freq.    3040.17  E(vib)   ...       0.00 
freq.    3052.32  E(vib)   ...       0.00 
freq.    3078.29  E(vib)   ...       0.00 
freq.    3121.87  E(vib)   ...       0.00 
freq.    3135.38  E(vib)   ...       0.00 
freq.    3725.99  E(vib)   ...       0.00 

------------
INNER ENERGY
------------

The inner energy is: U= E(el) + E(ZPE) + E(vib) + E(rot) + E(trans)
    E(el)   - is the total energy from the electronic structure calculation
              = E(kin-el) + E(nuc-el) + E(el-el) + E(nuc-nuc)
    E(ZPE)  - the the zero temperature vibrational energy from the frequency calculation
    E(vib)  - the the finite temperature correction to E(ZPE) due to population
              of excited vibrational states
    E(rot)  - is the rotational thermal energy
    E(trans)- is the translational thermal energy

Summary of contributions to the inner energy U:
Electronic energy                ...   -154.94704064 Eh
Zero point energy                ...      0.08061336 Eh      50.59 kcal/mol
Thermal vibrational correction   ...      0.00132068 Eh       0.83 kcal/mol
Thermal rotational correction    ...      0.00141627 Eh       0.89 kcal/mol
Thermal translational correction ...      0.00141627 Eh       0.89 kcal/mol
-----------------------------------------------------------------------
Total thermal energy                   -154.86227406 Eh


Summary of corrections to the electronic energy:
(perhaps to be used in another calculation)
Total thermal correction                  0.00415322 Eh       2.61 kcal/mol
Non-thermal (ZPE) correction              0.08061336 Eh      50.59 kcal/mol
-----------------------------------------------------------------------
Total correction                          0.08476658 Eh      53.19 kcal/mol


--------
ENTHALPY
--------

The enthalpy is H = U + kB*T
                kB is Boltzmann's constant
Total free energy                 ...   -154.86227406 Eh 
Thermal Enthalpy correction       ...      0.00094421 Eh       0.59 kcal/mol
-----------------------------------------------------------------------
Total Enthalpy                    ...   -154.86132985 Eh


Vibrational entropy computed according to the QRRHO of S. Grimme
Chem.Eur.J. 2012 18 9955


-------
ENTROPY
-------

The entropy contributions are T*S = T*(S(el)+S(vib)+S(rot)+S(trans)
     S(el)   - electronic entropy
     S(vib)  - vibrational entropy
     S(rot)  - rotational entropy
     S(trans)- translational entropy
The entropies will be listed as mutliplied by the temperature to get
units of energy

Electronic entropy                ...      0.00000000 Eh      0.00 kcal/mol
Vibrational entropy               ...      0.00199356 Eh      1.25 kcal/mol
Rotational entropy                ...      0.00955797 Eh      6.00 kcal/mol
Translational entropy             ...      0.01777359 Eh     11.15 kcal/mol
-----------------------------------------------------------------------
Final entropy term                ...      0.02932513 Eh     18.40 kcal/mol


CAUTION: The rotational entropy is not quite correctly treated here
         because it includes a symmetry number that is not yet correctly
         implemented in ORCA!
For a nonlinear molecule the correct rotational entropy is:
    S(rot) = R*(ln(qrot/sn)+1.5)
    R    = 8.31441 J/mol/K = 1.987191683e-3 kcal/mol/K
    qrot = 16674.6357998
    sn is the rotational symmetry number. We have assumed 3 here
       if it is different for your molecule then you should correct
       the printed rotational entropy by manually evaluating the equation
       as given above

For convenience we print out the resulting values for sn=1 - 12:
 sn= 1  qrot/sn=   16674.6358 T*S(rot)=     6.65 kcal/mol T*S(tot)=    19.05 kcal/mol
 sn= 2  qrot/sn=    8337.3179 T*S(rot)=     6.24 kcal/mol T*S(tot)=    18.64 kcal/mol
 sn= 3  qrot/sn=    5558.2119 T*S(rot)=     6.00 kcal/mol T*S(tot)=    18.40 kcal/mol
 sn= 4  qrot/sn=    4168.6589 T*S(rot)=     5.83 kcal/mol T*S(tot)=    18.23 kcal/mol
 sn= 5  qrot/sn=    3334.9272 T*S(rot)=     5.70 kcal/mol T*S(tot)=    18.10 kcal/mol
 sn= 6  qrot/sn=    2779.1060 T*S(rot)=     5.59 kcal/mol T*S(tot)=    17.99 kcal/mol
 sn= 7  qrot/sn=    2382.0908 T*S(rot)=     5.50 kcal/mol T*S(tot)=    17.90 kcal/mol
 sn= 8  qrot/sn=    2084.3295 T*S(rot)=     5.42 kcal/mol T*S(tot)=    17.82 kcal/mol
 sn= 9  qrot/sn=    1852.7373 T*S(rot)=     5.35 kcal/mol T*S(tot)=    17.75 kcal/mol
 sn=10  qrot/sn=    1667.4636 T*S(rot)=     5.28 kcal/mol T*S(tot)=    17.69 kcal/mol
 sn=11  qrot/sn=    1515.8760 T*S(rot)=     5.23 kcal/mol T*S(tot)=    17.63 kcal/mol
 sn=12  qrot/sn=    1389.5530 T*S(rot)=     5.18 kcal/mol T*S(tot)=    17.58 kcal/mol


-------------------
GIBBS FREE ENTHALPY
-------------------

The Gibbs free enthalpy is G = H - T*S

Total enthalpy                    ...   -154.86132985 Eh 
Total entropy correction          ...     -0.02932513 Eh    -18.40 kcal/mol
-----------------------------------------------------------------------
Final Gibbs free enthalpy         ...   -154.89065498 Eh

For completeness - the Gibbs free enthalpy minus the electronic energy
G-E(el)                           ...      0.05638567 Eh     35.38 kcal/mol


Timings for individual modules:

Sum of individual times         ...      142.608 sec (=   2.377 min)
GTO integral calculation        ...        0.482 sec (=   0.008 min)   0.3 %
SCF iterations                  ...       11.615 sec (=   0.194 min)   8.1 %
Analytical frequency calculation...      130.511 sec (=   2.175 min)  91.5 %
                             ****ORCA TERMINATED NORMALLY****
TOTAL RUN TIME: 0 days 0 hours 2 minutes 22 seconds 957 msec
