
                                 *****************
                                 * O   R   C   A *
                                 *****************

           --- An Ab Initio, DFT and Semiempirical electronic structure package ---

                  #######################################################
                  #                        -***-                        #
                  #  Department of molecular theory and spectroscopy    #
                  #              Directorship: Frank Neese              #
                  # Max Planck Institute for Chemical Energy Conversion #
                  #                  D-45470 Muelheim/Ruhr              #
                  #                       Germany                       #
                  #                                                     #
                  #                  All rights reserved                #
                  #                        -***-                        #
                  #######################################################


                         Program Version 4.0.1 -  RELEASE  -


 With contributions from (in alphabetic order):
   Daniel Aravena         : Magnetic Properties
   Michael Atanasov       : Ab Initio Ligand Field Theory
   Ute Becker             : Parallelization
   Martin Brehm           : Molecular dynamics
   Dmytro Bykov           : SCF Hessian
   Vijay G. Chilkuri      : MRCI spin determinant printing
   Dipayan Datta          : RHF DLPNO-CCSD density
   Achintya Kumar Dutta   : EOM-CC, STEOM-CC
   Dmitry Ganyushin       : Spin-Orbit,Spin-Spin,Magnetic field MRCI
   Yang Guo               : DLPNO-NEVPT2, CIM, IAO-localization
   Andreas Hansen         : Spin unrestricted coupled pair/coupled cluster methods
   Lee Huntington         : MR-EOM, pCC
   Robert Izsak           : Overlap fitted RIJCOSX, COSX-SCS-MP3, EOM
   Christian Kollmar      : KDIIS, OOCD, Brueckner-CCSD(T), CCSD density
   Simone Kossmann        : Meta GGA functionals, TD-DFT gradient, OOMP2, MP2 Hessian
   Martin Krupicka        : AUTO-CI
   Dagmar Lenk            : GEPOL surface
   Dimitrios Liakos       : Extrapolation schemes; parallel MDCI
   Dimitrios Manganas     : ROCIS; embedding schemes
   Dimitrios Pantazis     : SARC Basis sets
   Taras Petrenko         : DFT Hessian,TD-DFT gradient, ASA, ECA, R-Raman, ABS, FL, XAS/XES, NRVS
   Peter Pinski           : DLPNO-MP2
   Christoph Reimann      : Effective Core Potentials
   Marius Retegan         : Local ZFS, SOC
   Christoph Riplinger    : Optimizer, TS searches, QM/MM, DLPNO-CCSD(T), (RO)-DLPNO pert. Triples
   Tobias Risthaus        : Range-separated hybrids, TD-DFT gradient, RPA, STAB
   Michael Roemelt        : Restricted open shell CIS
   Masaaki Saitow         : Open-shell DLPNO
   Barbara Sandhoefer     : DKH picture change effects
   Kantharuban Sivalingam : CASSCF convergence, NEVPT2, FIC-MRCI
   Georgi Stoychev        : AutoAux
   Boris Wezisla          : Elementary symmetry handling
   Frank Wennmohs         : Technical directorship


 We gratefully acknowledge several colleagues who have allowed us to
 interface, adapt or use parts of their codes:
   Stefan Grimme, W. Hujo, H. Kruse,             : VdW corrections, initial TS optimization,
                  C. Bannwarth                     DFT functionals, gCP, sTDA/sTD-DF
   Ed Valeev                                     : LibInt (2-el integral package), F12 methods
   Garnet Chan, S. Sharma, J. Yang, R. Olivares  : DMRG
   Ulf Ekstrom                                   : XCFun DFT Library
   Mihaly Kallay                                 : mrcc  (arbitrary order and MRCC methods)
   Andreas Klamt, Michael Diedenhofen            : otool_cosmo (COSMO solvation model)
   Jiri Pittner, Ondrej Demel                    : Mk-CCSD
   Frank Weinhold                                : gennbo (NPA and NBO analysis)
   Christopher J. Cramer and Donald G. Truhlar   : smd solvation model


 Your calculation uses the libint2 library for the computation of 2-el integrals
 For citations please refer to: http://libint.valeyev.net

 This ORCA versions uses:
   CBLAS   interface :  Fast vector & matrix operations
   LAPACKE interface :  Fast linear algebra routines
   SCALAPACK package :  Parallel linear algebra routines




*****************************************
The coordinations will be read from file: p-nitrotolueno.xyz
*****************************************


Your calculation utilizes the basis: 6-31G(d,p)
   H-He, Li-Ne : W. J. Hehre, R. Ditchfield and J.A. Pople, J. Chem. Phys. 56, 2257 (1972).
                 Note: He and Ne are unpublished basis sets taken from the Gaussian program.
                 Note: Li and B from J. D. Dill and J. A. Pople, J. Chem. Phys. 62, 2921 (1975).
   Na - Ar     : M. M. Francl, W. J. Pietro, W. J. Hehre, J. S. Binkley, M. S. Gordon, 
                 D. J. DeFrees and J. A. Pople, J. Chem. Phys. 77, 3654 (1982).
   K - Zn      : V. A. Rassolov, J. A. Pople, M. A. Ratner, and T. L. Windus, J. Chem. Phys. 109, 1223 (1998).

================================================================================
                                        WARNINGS
                       Please study these warnings very carefully!
================================================================================

WARNING: Gradients needed for Numerical Frequencies
  ===> : Setting RunTyp to EnGrad
Warning: TCutStore was < 0. Adjusted to Thresh (uncritical)

WARNING: Evaluation of Numerical Hessian with CPCM may lead to unreliable numbers

INFO   : the flag for use of LIBINT has been found!

================================================================================
                                       INPUT FILE
================================================================================
NAME = p-nitrotolueno.inp
|  1> ! B3LYP 6-31G(d,p) CPCM(toluene) NumFreq
|  2> 
|  3> * xyzfile 0 1 p-nitrotolueno.xyz
|  4> 
|  5>                          ****END OF INPUT****
================================================================================

                     *******************************
                     * Energy+Gradient Calculation *
                     *******************************

---------------------------------
CARTESIAN COORDINATES (ANGSTROEM)
---------------------------------
  C     -4.451380    1.429700   -0.135670
  C     -4.343790    0.036930   -0.146640
  C     -3.080750   -0.557580   -0.037240
  C     -1.930730    0.231590    0.086890
  C     -2.049650    1.623480    0.096880
  C     -3.306580    2.231460   -0.027260
  H     -1.153600    2.232910    0.201150
  C     -3.433030    3.726860    0.018760
  H     -5.435920    1.887800   -0.213450
  H     -5.246510   -0.563500   -0.237370
  N     -2.961760   -2.020520   -0.047420
  H     -0.943580   -0.216440    0.179020
  H     -2.530140    4.208230   -0.371420
  H     -3.592250    4.056890    1.049880
  H     -4.273130    4.065600   -0.596620
  O     -4.003350   -2.683910   -0.155250
  O     -1.826520   -2.508290    0.052360

----------------------------
CARTESIAN COORDINATES (A.U.)
----------------------------
  NO LB      ZA    FRAG     MASS         X           Y           Z
   0 C     6.0000    0    12.011   -8.411889    2.701741   -0.256379
   1 C     6.0000    0    12.011   -8.208573    0.069788   -0.277109
   2 C     6.0000    0    12.011   -5.821774   -1.053673   -0.070373
   3 C     6.0000    0    12.011   -3.648551    0.437642    0.164198
   4 C     6.0000    0    12.011   -3.873277    3.067933    0.183077
   5 C     6.0000    0    12.011   -6.248531    4.216848   -0.051514
   6 H     1.0000    0     1.008   -2.179988    4.219588    0.380118
   7 C     6.0000    0    12.011   -6.487487    7.042745    0.035451
   8 H     1.0000    0     1.008  -10.272400    3.567425   -0.403362
   9 H     1.0000    0     1.008   -9.914467   -1.064861   -0.448564
  10 N     7.0000    0    14.007   -5.596915   -3.818229   -0.089611
  11 H     1.0000    0     1.008   -1.783108   -0.409012    0.338299
  12 H     1.0000    0     1.008   -4.781272    7.952402   -0.701882
  13 H     1.0000    0     1.008   -6.788369    7.666411    1.983986
  14 H     1.0000    0     1.008   -8.075045    7.682871   -1.127448
  15 O     8.0000    0    15.999   -7.565235   -5.071855   -0.293380
  16 O     8.0000    0    15.999   -3.451623   -4.739981    0.098946

--------------------------------
INTERNAL COORDINATES (ANGSTROEM)
--------------------------------
 C      0   0   0     0.000000000000     0.00000000     0.00000000
 C      1   0   0     1.396962498387     0.00000000     0.00000000
 C      2   1   0     1.400243029513   119.48259303     0.00000000
 C      3   2   1     1.400265527034   120.56089756     0.20844825
 C      4   3   2     1.396996613668   119.48839679   359.79697857
 C      5   4   3     1.401757270322   120.51997438   359.46876737
 H      5   4   3     1.088660994203   119.23361506   179.54159494
 C      6   5   4     1.501442174344   120.31706986   178.45507301
 H      1   2   3     1.088680095345   119.24931117   180.45504339
 H      2   1   3     1.087957497423   119.14240365   179.82229135
 N      3   2   1     1.467806423238   119.71921851   179.96499884
 H      4   3   2     1.087972398685   121.37243237   179.61197926
 H      8   6   5     1.095065231573   110.94378837    30.09303900
 H      8   6   5     1.094293956714   109.96908075   269.61600215
 H      8   6   5     1.095082344849   110.82217323   149.10664781
 O     11   3   2     1.239606118531   117.76680369     0.04225700
 O     11   3   2     1.239615052708   117.76608838   180.04010736

---------------------------
INTERNAL COORDINATES (A.U.)
---------------------------
 C      0   0   0     0.000000000000     0.00000000     0.00000000
 C      1   0   0     2.639876541310     0.00000000     0.00000000
 C      2   1   0     2.646075846712   119.48259303     0.00000000
 C      3   2   1     2.646118360865   120.56089756     0.20844825
 C      4   3   2     2.639941009848   119.48839679   359.79697857
 C      5   4   3     2.648937347141   120.51997438   359.46876737
 H      5   4   3     2.057271131727   119.23361506   179.54159494
 C      6   5   4     2.837314515430   120.31706986   178.45507301
 H      1   2   3     2.057307227653   119.24931117   180.45504339
 H      2   1   3     2.055941715477   119.14240365   179.82229135
 N      3   2   1     2.773752157531   119.71921851   179.96499884
 H      4   3   2     2.055969874780   121.37243237   179.61197926
 H      8   6   5     2.069373386452   110.94378837    30.09303900
 H      8   6   5     2.067915888194   109.96908075   269.61600215
 H      8   6   5     2.069405725857   110.82217323   149.10664781
 O     11   3   2     2.342516077957   117.76680369     0.04225700
 O     11   3   2     2.342532961104   117.76608838   180.04010736

---------------------
BASIS SET INFORMATION
---------------------
There are 4 groups of distinct atoms

 Group   1 Type C   : 10s4p1d contracted to 3s2p1d pattern {631/31/1}
 Group   2 Type H   : 4s1p contracted to 2s1p pattern {31/1}
 Group   3 Type N   : 10s4p1d contracted to 3s2p1d pattern {631/31/1}
 Group   4 Type O   : 10s4p1d contracted to 3s2p1d pattern {631/31/1}

Atom   0C    basis set group =>   1
Atom   1C    basis set group =>   1
Atom   2C    basis set group =>   1
Atom   3C    basis set group =>   1
Atom   4C    basis set group =>   1
Atom   5C    basis set group =>   1
Atom   6H    basis set group =>   2
Atom   7C    basis set group =>   1
Atom   8H    basis set group =>   2
Atom   9H    basis set group =>   2
Atom  10N    basis set group =>   3
Atom  11H    basis set group =>   2
Atom  12H    basis set group =>   2
Atom  13H    basis set group =>   2
Atom  14H    basis set group =>   2
Atom  15O    basis set group =>   4
Atom  16O    basis set group =>   4
------------------------------------------------------------------------------
                           ORCA GTO INTEGRAL CALCULATION
------------------------------------------------------------------------------

                         BASIS SET STATISTICS AND STARTUP INFO

 # of primitive gaussian shells          ...  185
 # of primitive gaussian functions       ...  319
 # of contracted shells                  ...   81
 # of contracted basis functions         ...  175
 Highest angular momentum                ...    2
 Maximum contraction depth               ...    6
 Integral package used                   ... LIBINT
 Integral threshhold            Thresh   ...  2.500e-11
 Primitive cut-off              TCut     ...  2.500e-12


------------------------------ INTEGRAL EVALUATION ----------------------------


 * One electron integrals 
 Pre-screening matrix                    ... done
 Shell pair data                         ... done (   0.003 sec)

-------------------------------------------------------------------------------
                                 ORCA SCF
-------------------------------------------------------------------------------

------------
SCF SETTINGS
------------
Hamiltonian:
 Density Functional     Method          .... DFT(GTOs)
 Exchange Functional    Exchange        .... B88
   X-Alpha parameter    XAlpha          ....  0.666667
   Becke's b parameter  XBeta           ....  0.004200
 Correlation Functional Correlation     .... LYP
 LDA part of GGA corr.  LDAOpt          .... VWN-5
 Gradients option       PostSCFGGA      .... off
 Hybrid DFT is turned on
   Fraction HF Exchange ScalHFX         ....  0.200000
   Scaling of DF-GGA-X  ScalDFX         ....  0.720000
   Scaling of DF-GGA-C  ScalDFC         ....  0.810000
   Scaling of DF-LDA-C  ScalLDAC        ....  1.000000
   Perturbative correction              ....  0.000000
   NL short-range parameter             ....  4.800000


General Settings:
 Integral files         IntName         .... p-nitrotolueno
 Hartree-Fock type      HFTyp           .... RHF
 Total Charge           Charge          ....    0
 Multiplicity           Mult            ....    1
 Number of Electrons    NEL             ....   72
 Basis Dimension        Dim             ....  175
 Nuclear Repulsion      ENuc            ....    490.2520543114 Eh

Convergence Acceleration:
 DIIS                   CNVDIIS         .... on
   Start iteration      DIISMaxIt       ....    12
   Startup error        DIISStart       ....  0.200000
   # of expansion vecs  DIISMaxEq       ....     5
   Bias factor          DIISBfac        ....   1.050
   Max. coefficient     DIISMaxC        ....  10.000
 Newton-Raphson         CNVNR           .... off
 SOSCF                  CNVSOSCF        .... on
   Start iteration      SOSCFMaxIt      ....   150
   Startup grad/error   SOSCFStart      ....  0.003300
 Level Shifting         CNVShift        .... on
   Level shift para.    LevelShift      ....    0.2500
   Turn off err/grad.   ShiftErr        ....    0.0010
 Zerner damping         CNVZerner       .... off
 Static damping         CNVDamp         .... on
   Fraction old density DampFac         ....    0.7000
   Max. Damping (<1)    DampMax         ....    0.9800
   Min. Damping (>=0)   DampMin         ....    0.0000
   Turn off err/grad.   DampErr         ....    0.1000
 Fernandez-Rico         CNVRico         .... off

SCF Procedure:
 Maximum # iterations   MaxIter         ....   125
 SCF integral mode      SCFMode         .... Direct
   Integral package                     .... LIBINT
 Reset frequeny         DirectResetFreq ....    20
 Integral Threshold     Thresh          ....  2.500e-11 Eh
 Primitive CutOff       TCut            ....  2.500e-12 Eh

Convergence Tolerance:
 Convergence Check Mode ConvCheckMode   .... Total+1el-Energy
 Convergence forced     ConvForced      .... 0
 Energy Change          TolE            ....  1.000e-08 Eh
 1-El. energy change                    ....  1.000e-05 Eh
 Orbital Gradient       TolG            ....  1.000e-05
 Orbital Rotation angle TolX            ....  1.000e-05
 DIIS Error             TolErr          ....  5.000e-07


Diagonalization of the overlap matrix:
Smallest eigenvalue                        ... 4.427e-04
Time for diagonalization                   ...    0.015 sec
Threshold for overlap eigenvalues          ... 1.000e-08
Number of eigenvalues below threshold      ... 0
Time for construction of square roots      ...    0.006 sec
Total time needed                          ...    0.022 sec

-------------------
DFT GRID GENERATION
-------------------

General Integration Accuracy     IntAcc      ...  4.340
Radial Grid Type                 RadialGrid  ... Gauss-Chebyshev
Angular Grid (max. acc.)         AngularGrid ... Lebedev-110
Angular grid pruning method      GridPruning ... 3 (G Style)
Weight generation scheme         WeightScheme... Becke
Basis function cutoff            BFCut       ...    1.0000e-11
Integration weight cutoff        WCut        ...    1.0000e-14
Grids for H and He will be reduced by one unit

# of grid points (after initial pruning)     ...  22284 (   0.0 sec)
# of grid points (after weights+screening)   ...  20694 (   0.1 sec)
nearest neighbour list constructed           ...    0.0 sec
Grid point re-assignment to atoms done       ...    0.0 sec
Grid point division into batches done        ...    0.0 sec
Reduced shell lists constructed in    0.5 sec

Total number of grid points                  ...    20694
Total number of batches                      ...      332
Average number of points per batch           ...       62
Average number of grid points per atom       ...     1217
Average number of shells per batch           ...    51.88 (64.05%)
Average number of basis functions per batch  ...   112.43 (64.25%)
Average number of large shells per batch     ...    39.31 (75.77%)
Average number of large basis fcns per batch ...    85.65 (76.18%)
Maximum spatial batch extension              ...  21.31, 23.63, 23.29 au
Average spatial batch extension              ...   3.57,  3.60,  4.37 au

Time for grid setup =    0.700 sec

------------------------------
INITIAL GUESS: MODEL POTENTIAL
------------------------------
Loading Hartree-Fock densities                     ... done
Calculating cut-offs                               ... done
Setting up the integral package                    ... done
Initializing the effective Hamiltonian             ... done
Starting the Coulomb interaction                   ... done (   0.5 sec)
Reading the grid                                   ... done
Mapping shells                                     ... done
Starting the XC term evaluation                    ... done (   0.7 sec)
  promolecular density results
     # of electrons  =     71.991982597
     EX              =    -61.001711039
     EC              =     -2.465738687
     EX+EC           =    -63.467449726
Transforming the Hamiltonian                       ... done (   0.0 sec)
Diagonalizing the Hamiltonian                      ... done (   0.0 sec)
Back transforming the eigenvectors                 ... done (   0.0 sec)
Now organizing SCF variables                       ... done
                      ------------------
                      INITIAL GUESS DONE (   2.1 sec)
                      ------------------

------------------------------------------------------------------------------
                           CPCM SOLVATION MODEL                               
------------------------------------------------------------------------------
CPCM parameters:
  Epsilon                                         ...       2.4000
  Refrac                                          ...       1.4970
  Rsolv                                           ...       1.3000
  Surface type                                    ...    GEPOL SES
  Epsilon function type                           ...         CPCM
Radii:
 Radius for C  used is    3.7795 Bohr (=   2.0000 Ang.)
 Radius for H  used is    2.4566 Bohr (=   1.3000 Ang.)
 Radius for N  used is    3.4582 Bohr (=   1.8300 Ang.)
 Radius for O  used is    3.2503 Bohr (=   1.7200 Ang.)
Calculating surface                               ...        done! (  0.1s)
GEPOL surface points                              ...          535
GEPOL Volume                                      ...    1088.3200
GEPOL Surface-area                                ...     610.4769
Calculating surface distance matrix               ...        done! (  0.0s)
Performing Cholesky decomposition & store         ...        done! (  0.0s)
Overall time for CPCM initialization              ...                 0.1s
--------------
SCF ITERATIONS
--------------
ITER       Energy         Delta-E        Max-DP      RMS-DP      [F,P]     Damp
               ***  Starting incremental Fock matrix formation  ***
  0   -475.5329879333   0.000000000000 0.09045526  0.00220989  0.2251849 0.7000
  1   -475.6643122235  -0.131324290207 0.04283122  0.00138449  0.0905118 0.7000
                               ***Turning on DIIS***
  2   -475.7106735410  -0.046361317503 0.06212520  0.00213246  0.0365543 0.0000
  3   -475.7930953819  -0.082421840827 0.03683943  0.00093868  0.0466205 0.0000
  4   -475.8062524408  -0.013157058971 0.01291179  0.00032426  0.0173934 0.0000
  5   -475.8077288154  -0.001476374564 0.00268127  0.00010084  0.0034046 0.0000
                      *** Initiating the SOSCF procedure ***
                           *** Shutting down DIIS ***
                      *** Re-Reading the Fockian *** 
                      *** Removing any level shift *** 
ITER      Energy       Delta-E        Grad      Rot      Max-DP    RMS-DP
  6   -475.80777902  -0.0000502007  0.000362  0.000362  0.001140  0.000047
               *** Restarting incremental Fock matrix formation ***
  7   -475.80778397  -0.0000049491  0.000333  0.001521  0.001425  0.000035
  8   -475.80777958   0.0000043824  0.000651  0.000968  0.000901  0.000022
  9   -475.80778606  -0.0000064801  0.000059  0.000121  0.000166  0.000004
 10   -475.80778602   0.0000000382  0.000087  0.000061  0.000105  0.000002
 11   -475.80778609  -0.0000000672  0.000013  0.000022  0.000045  0.000001
 12   -475.80778609   0.0000000018  0.000015  0.000014  0.000024  0.000001
 13   -475.80778609  -0.0000000037  0.000004  0.000015  0.000016  0.000000
 14   -475.80778609   0.0000000013  0.000009  0.000011  0.000011  0.000000
                  ***Gradient check signals convergence***
              ***Rediagonalizing the Fockian in SOSCF/NRSCF***

               *****************************************************
               *                     SUCCESS                       *
               *           SCF CONVERGED AFTER  15 CYCLES          *
               *****************************************************

Setting up the final grid:

General Integration Accuracy     IntAcc      ...  4.670
Radial Grid Type                 RadialGrid  ... Gauss-Chebyshev
Angular Grid (max. acc.)         AngularGrid ... Lebedev-302
Angular grid pruning method      GridPruning ... 3 (G Style)
Weight generation scheme         WeightScheme... Becke
Basis function cutoff            BFCut       ...    1.0000e-11
Integration weight cutoff        WCut        ...    1.0000e-14
Grids for H and He will be reduced by one unit

# of grid points (after initial pruning)     ...  85878 (   0.1 sec)
# of grid points (after weights+screening)   ...  78484 (   0.6 sec)
nearest neighbour list constructed           ...    0.0 sec
Grid point re-assignment to atoms done       ...    0.0 sec
Grid point division into batches done        ...    0.5 sec
Reduced shell lists constructed in    2.4 sec

Total number of grid points                  ...    78484
Total number of batches                      ...     1237
Average number of points per batch           ...       63
Average number of grid points per atom       ...     4617
Average number of shells per batch           ...    46.89 (57.89%)
Average number of basis functions per batch  ...   101.20 (57.83%)
Average number of large shells per batch     ...    34.72 (74.06%)
Average number of large basis fcns per batch ...    75.11 (74.21%)
Maximum spatial batch extension              ...  19.40, 20.91, 21.99 au
Average spatial batch extension              ...   2.41,  2.39,  2.67 au

Final grid set up in    3.1 sec
Final integration                            ... done (   3.3 sec)
Change in XC energy                          ...    -0.000629151
Integrated number of electrons               ...    72.000015408
Previous integrated no of electrons          ...    71.997086853

----------------
TOTAL SCF ENERGY
----------------

Total Energy       :         -475.80841524 Eh          -12947.40521 eV

Components:
Nuclear Repulsion  :          490.25205431 Eh           13340.43661 eV
Electronic Energy  :         -966.06046956 Eh          -26287.84182 eV
One Electron Energy:        -1617.83658666 Eh          -44023.57164 eV
Two Electron Energy:          651.77611710 Eh           17735.72981 eV
CPCM Dielectric    :           -0.00648317 Eh              -0.17642 eV

Virial components:
Potential Energy   :         -948.59809483 Eh          -25812.66645 eV
Kinetic Energy     :          472.78967959 Eh           12865.26124 eV
Virial Ratio       :            2.00638494


DFT components:
N(Alpha)           :       36.000007703936 electrons
N(Beta)            :       36.000007703936 electrons
N(Total)           :       72.000015407872 electrons
E(X)               :      -49.122109583458 Eh       
E(C)               :       -2.906294923664 Eh       
E(XC)              :      -52.028404507121 Eh       
CPCM Solvation Model Properties:
Surface-charge          :           -0.01785841
Charge-correction       :           -0.00004347 Eh              -0.00118 eV
Free-energy (cav+disp)  :            0.00394783 Eh               0.10743 eV
Corrected G(solv)       :         -475.80451088 Eh          -12947.29897 eV

---------------
SCF CONVERGENCE
---------------

  Last Energy change         ...   -7.0520e-10  Tolerance :   1.0000e-08
  Last MAX-Density change    ...    1.8319e-06  Tolerance :   1.0000e-07
  Last RMS-Density change    ...    6.0763e-08  Tolerance :   5.0000e-09
  Last Orbital Gradient      ...    5.6459e-07  Tolerance :   1.0000e-05
  Last Orbital Rotation      ...    1.1359e-06  Tolerance :   1.0000e-05

             **** THE GBW FILE WAS UPDATED (p-nitrotolueno.gbw) ****
             **** DENSITY FILE WAS UPDATED (p-nitrotolueno.scfp.tmp) ****
             **** ENERGY FILE WAS UPDATED (p-nitrotolueno.en.tmp) ****
----------------
ORBITAL ENERGIES
----------------

  NO   OCC          E(Eh)            E(eV) 
   0   2.0000     -19.175759      -521.7989 
   1   2.0000     -19.175645      -521.7958 
   2   2.0000     -14.565488      -396.3471 
   3   2.0000     -10.241974      -278.6983 
   4   2.0000     -10.212541      -277.8974 
   5   2.0000     -10.208661      -277.7918 
   6   2.0000     -10.208627      -277.7909 
   7   2.0000     -10.198911      -277.5265 
   8   2.0000     -10.198831      -277.5243 
   9   2.0000     -10.183625      -277.1105 
  10   2.0000      -1.214700       -33.0537 
  11   2.0000      -1.043528       -28.3959 
  12   2.0000      -0.881625       -23.9902 
  13   2.0000      -0.812406       -22.1067 
  14   2.0000      -0.762050       -20.7364 
  15   2.0000      -0.735690       -20.0192 
  16   2.0000      -0.658028       -17.9059 
  17   2.0000      -0.623743       -16.9729 
  18   2.0000      -0.582967       -15.8634 
  19   2.0000      -0.553420       -15.0593 
  20   2.0000      -0.524703       -14.2779 
  21   2.0000      -0.510796       -13.8995 
  22   2.0000      -0.475370       -12.9355 
  23   2.0000      -0.471499       -12.8302 
  24   2.0000      -0.453442       -12.3388 
  25   2.0000      -0.435516       -11.8510 
  26   2.0000      -0.430350       -11.7104 
  27   2.0000      -0.390893       -10.6367 
  28   2.0000      -0.369739       -10.0611 
  29   2.0000      -0.367006        -9.9867 
  30   2.0000      -0.355441        -9.6720 
  31   2.0000      -0.308123        -8.3845 
  32   2.0000      -0.306385        -8.3371 
  33   2.0000      -0.289526        -7.8784 
  34   2.0000      -0.267652        -7.2832 
  35   2.0000      -0.263373        -7.1668 
  36   0.0000      -0.086805        -2.3621 
  37   0.0000      -0.018782        -0.5111 
  38   0.0000       0.007952         0.2164 
  39   0.0000       0.087547         2.3823 
  40   0.0000       0.120306         3.2737 
  41   0.0000       0.132911         3.6167 
  42   0.0000       0.135233         3.6799 
  43   0.0000       0.164204         4.4682 
  44   0.0000       0.169147         4.6027 
  45   0.0000       0.184910         5.0317 
  46   0.0000       0.194347         5.2884 
  47   0.0000       0.203995         5.5510 
  48   0.0000       0.226445         6.1619 
  49   0.0000       0.264880         7.2078 
  50   0.0000       0.271470         7.3871 
  51   0.0000       0.304759         8.2929 
  52   0.0000       0.321720         8.7544 
  53   0.0000       0.344777         9.3819 
  54   0.0000       0.376186        10.2365 
  55   0.0000       0.480863        13.0849 
  56   0.0000       0.494749        13.4628 
  57   0.0000       0.500628        13.6228 
  58   0.0000       0.503131        13.6909 
  59   0.0000       0.521927        14.2024 
  60   0.0000       0.539848        14.6900 
  61   0.0000       0.560995        15.2654 
  62   0.0000       0.579457        15.7678 
  63   0.0000       0.582308        15.8454 
  64   0.0000       0.584034        15.8924 
  65   0.0000       0.614014        16.7082 
  66   0.0000       0.624260        16.9870 
  67   0.0000       0.633941        17.2504 
  68   0.0000       0.644247        17.5309 
  69   0.0000       0.687341        18.7035 
  70   0.0000       0.707501        19.2521 
  71   0.0000       0.712214        19.3803 
  72   0.0000       0.734199        19.9786 
  73   0.0000       0.746526        20.3140 
  74   0.0000       0.777856        21.1665 
  75   0.0000       0.784456        21.3461 
  76   0.0000       0.798564        21.7300 
  77   0.0000       0.821289        22.3484 
  78   0.0000       0.830180        22.5903 
  79   0.0000       0.835552        22.7365 
  80   0.0000       0.854087        23.2409 
  81   0.0000       0.879450        23.9311 
  82   0.0000       0.891467        24.2581 
  83   0.0000       0.926152        25.2019 
  84   0.0000       0.938371        25.5344 
  85   0.0000       0.946884        25.7660 
  86   0.0000       0.949495        25.8371 
  87   0.0000       0.983489        26.7621 
  88   0.0000       0.995422        27.0868 
  89   0.0000       0.999063        27.1859 
  90   0.0000       1.049856        28.5680 
  91   0.0000       1.082866        29.4663 
  92   0.0000       1.103201        30.0196 
  93   0.0000       1.131794        30.7977 
  94   0.0000       1.172519        31.9059 
  95   0.0000       1.191764        32.4295 
  96   0.0000       1.232479        33.5375 
  97   0.0000       1.263308        34.3764 
  98   0.0000       1.276911        34.7465 
  99   0.0000       1.300957        35.4008 
 100   0.0000       1.354254        36.8511 
 101   0.0000       1.368828        37.2477 
 102   0.0000       1.369444        37.2645 
 103   0.0000       1.391111        37.8541 
 104   0.0000       1.403762        38.1983 
 105   0.0000       1.423939        38.7473 
 106   0.0000       1.438717        39.1495 
 107   0.0000       1.450250        39.4633 
 108   0.0000       1.589069        43.2408 
 109   0.0000       1.706136        46.4263 
 110   0.0000       1.714675        46.6587 
 111   0.0000       1.724597        46.9287 
 112   0.0000       1.727420        47.0055 
 113   0.0000       1.729853        47.0717 
 114   0.0000       1.777673        48.3730 
 115   0.0000       1.801954        49.0337 
 116   0.0000       1.805843        49.1395 
 117   0.0000       1.823151        49.6105 
 118   0.0000       1.826204        49.6935 
 119   0.0000       1.877013        51.0761 
 120   0.0000       1.889013        51.4027 
 121   0.0000       1.910056        51.9753 
 122   0.0000       1.932443        52.5844 
 123   0.0000       1.953614        53.1605 
 124   0.0000       1.967814        53.5469 
 125   0.0000       1.969247        53.5859 
 126   0.0000       2.012209        54.7550 
 127   0.0000       2.041162        55.5428 
 128   0.0000       2.048031        55.7298 
 129   0.0000       2.079194        56.5777 
 130   0.0000       2.079813        56.5946 
 131   0.0000       2.110682        57.4346 
 132   0.0000       2.114955        57.5508 
 133   0.0000       2.128166        57.9103 
 134   0.0000       2.141175        58.2643 
 135   0.0000       2.203581        59.9625 
 136   0.0000       2.246578        61.1325 
 137   0.0000       2.277360        61.9701 
 138   0.0000       2.305341        62.7315 
 139   0.0000       2.362469        64.2861 
 140   0.0000       2.380930        64.7884 
 141   0.0000       2.390964        65.0614 
 142   0.0000       2.401285        65.3423 
 143   0.0000       2.409906        65.5769 
 144   0.0000       2.439662        66.3866 
 145   0.0000       2.492822        67.8331 
 146   0.0000       2.510890        68.3248 
 147   0.0000       2.567488        69.8649 
 148   0.0000       2.575837        70.0921 
 149   0.0000       2.581770        70.2535 
 150   0.0000       2.587859        70.4192 
 151   0.0000       2.613819        71.1256 
 152   0.0000       2.680274        72.9340 
 153   0.0000       2.694685        73.3261 
 154   0.0000       2.703973        73.5788 
 155   0.0000       2.720812        74.0370 
 156   0.0000       2.722113        74.0725 
 157   0.0000       2.793248        76.0082 
 158   0.0000       2.816511        76.6412 
 159   0.0000       2.861390        77.8624 
 160   0.0000       2.870610        78.1133 
 161   0.0000       2.895380        78.7873 
 162   0.0000       2.916274        79.3559 
 163   0.0000       3.035660        82.6045 
 164   0.0000       3.061402        83.3050 
 165   0.0000       3.078808        83.7786 
 166   0.0000       3.185644        86.6858 
 167   0.0000       3.196654        86.9854 
 168   0.0000       3.236861        88.0795 
 169   0.0000       3.344038        90.9959 
 170   0.0000       3.351797        91.2070 
 171   0.0000       3.427768        93.2743 
 172   0.0000       3.463833        94.2557 
 173   0.0000       3.509261        95.4919 
 174   0.0000       3.825897       104.1080 

                    ********************************
                    * MULLIKEN POPULATION ANALYSIS *
                    ********************************

-----------------------
MULLIKEN ATOMIC CHARGES
-----------------------
   0 C :   -0.131212
   1 C :   -0.094592
   2 C :    0.221734
   3 C :   -0.094184
   4 C :   -0.130154
   5 C :    0.123082
   6 H :    0.115228
   7 C :   -0.375553
   8 H :    0.114095
   9 H :    0.140717
  10 N :    0.381695
  11 H :    0.139682
  12 H :    0.125293
  13 H :    0.142085
  14 H :    0.126655
  15 O :   -0.401531
  16 O :   -0.403039
Sum of atomic charges:   -0.0000000

--------------------------------
MULLIKEN REDUCED ORBITAL CHARGES
--------------------------------
  0 C s       :     3.195098  s :     3.195098
      pz      :     0.999485  p :     2.902066
      px      :     0.967155
      py      :     0.935425
      dz2     :     0.002862  d :     0.034049
      dxz     :     0.002825
      dyz     :     0.004767
      dx2y2   :     0.011595
      dxy     :     0.012000
  1 C s       :     3.189026  s :     3.189026
      pz      :     0.940253  p :     2.871410
      px      :     0.968747
      py      :     0.962411
      dz2     :     0.002899  d :     0.034156
      dxz     :     0.003900
      dyz     :     0.005330
      dx2y2   :     0.009540
      dxy     :     0.012488
  2 C s       :     3.115699  s :     3.115699
      pz      :     1.075591  p :     2.614978
      px      :     0.865310
      py      :     0.674078
      dz2     :     0.004071  d :     0.047589
      dxz     :     0.006885
      dyz     :     0.004726
      dx2y2   :     0.019825
      dxy     :     0.012081
  3 C s       :     3.188253  s :     3.188253
      pz      :     0.941802  p :     2.871781
      px      :     0.974992
      py      :     0.954987
      dz2     :     0.002910  d :     0.034150
      dxz     :     0.003314
      dyz     :     0.005910
      dx2y2   :     0.009535
      dxy     :     0.012481
  4 C s       :     3.195661  s :     3.195661
      pz      :     0.996611  p :     2.900419
      px      :     0.956539
      py      :     0.947270
      dz2     :     0.002855  d :     0.034074
      dxz     :     0.003243
      dyz     :     0.004416
      dx2y2   :     0.010929
      dxy     :     0.012630
  5 C s       :     3.150344  s :     3.150344
      pz      :     0.907008  p :     2.684598
      px      :     0.899356
      py      :     0.878233
      dz2     :     0.003009  d :     0.041976
      dxz     :     0.006049
      dyz     :     0.006072
      dx2y2   :     0.012795
      dxy     :     0.014052
  6 H s       :     0.872522  s :     0.872522
      pz      :     0.002677  p :     0.012251
      px      :     0.005893
      py      :     0.003681
  7 C s       :     3.247773  s :     3.247773
      pz      :     1.063621  p :     3.096520
      px      :     1.069267
      py      :     0.963632
      dz2     :     0.006813  d :     0.031260
      dxz     :     0.005587
      dyz     :     0.005198
      dx2y2   :     0.007628
      dxy     :     0.006035
  8 H s       :     0.873642  s :     0.873642
      pz      :     0.002653  p :     0.012262
      px      :     0.006758
      py      :     0.002852
  9 H s       :     0.846849  s :     0.846849
      pz      :     0.002448  p :     0.012434
      px      :     0.005957
      py      :     0.004029
 10 N s       :     3.376805  s :     3.376805
      pz      :     1.140478  p :     3.092887
      px      :     0.872846
      py      :     1.079563
      dz2     :     0.006625  d :     0.148612
      dxz     :     0.033696
      dyz     :     0.010464
      dx2y2   :     0.055045
      dxy     :     0.042782
 11 H s       :     0.847871  s :     0.847871
      pz      :     0.002446  p :     0.012448
      px      :     0.006873
      py      :     0.003129
 12 H s       :     0.863272  s :     0.863272
      pz      :     0.002937  p :     0.011435
      px      :     0.005393
      py      :     0.003104
 13 H s       :     0.846249  s :     0.846249
      pz      :     0.006411  p :     0.011667
      px      :     0.002513
      py      :     0.002743
 14 H s       :     0.861873  s :     0.861873
      pz      :     0.003825  p :     0.011472
      px      :     0.005011
      py      :     0.002637
 15 O s       :     3.919424  s :     3.919424
      pz      :     1.440978  p :     4.445404
      px      :     1.351918
      py      :     1.652508
      dz2     :     0.004427  d :     0.036703
      dxz     :     0.007928
      dyz     :     0.003665
      dx2y2   :     0.008798
      dxy     :     0.011884
 16 O s       :     3.921337  s :     3.921337
      pz      :     1.441760  p :     4.445017
      px      :     1.256306
      py      :     1.746952
      dz2     :     0.004403  d :     0.036685
      dxz     :     0.009449
      dyz     :     0.002127
      dx2y2   :     0.010550
      dxy     :     0.010156


                     *******************************
                     * LOEWDIN POPULATION ANALYSIS *
                     *******************************

----------------------
LOEWDIN ATOMIC CHARGES
----------------------
   0 C :   -0.072236
   1 C :   -0.041705
   2 C :   -0.018412
   3 C :   -0.041809
   4 C :   -0.072266
   5 C :    0.016418
   6 H :    0.086795
   7 C :   -0.192877
   8 H :    0.086496
   9 H :    0.098814
  10 N :    0.269108
  11 H :    0.098636
  12 H :    0.083848
  13 H :    0.093107
  14 H :    0.084616
  15 O :   -0.239154
  16 O :   -0.239377

-------------------------------
LOEWDIN REDUCED ORBITAL CHARGES
-------------------------------
  0 C s       :     2.898616  s :     2.898616
      pz      :     0.986545  p :     3.091435
      px      :     1.055238
      py      :     1.049652
      dz2     :     0.005441  d :     0.082186
      dxz     :     0.005097
      dyz     :     0.010147
      dx2y2   :     0.030363
      dxy     :     0.031138
  1 C s       :     2.901899  s :     2.901899
      pz      :     0.934886  p :     3.057641
      px      :     1.054489
      py      :     1.068266
      dz2     :     0.005575  d :     0.082166
      dxz     :     0.007758
      dyz     :     0.011179
      dx2y2   :     0.026165
      dxy     :     0.031489
  2 C s       :     2.877442  s :     2.877442
      pz      :     1.053998  p :     3.023802
      px      :     1.082357
      py      :     0.887447
      dz2     :     0.009307  d :     0.117169
      dxz     :     0.014323
      dyz     :     0.009166
      dx2y2   :     0.051199
      dxy     :     0.033175
  3 C s       :     2.901873  s :     2.901873
      pz      :     0.935113  p :     3.057818
      px      :     1.059391
      py      :     1.063314
      dz2     :     0.005604  d :     0.082118
      dxz     :     0.006248
      dyz     :     0.012673
      dx2y2   :     0.025860
      dxy     :     0.031734
  4 C s       :     2.898805  s :     2.898805
      pz      :     0.986088  p :     3.091229
      px      :     1.053869
      py      :     1.051272
      dz2     :     0.005452  d :     0.082233
      dxz     :     0.006193
      dyz     :     0.009214
      dx2y2   :     0.029084
      dxy     :     0.032289
  5 C s       :     2.880313  s :     2.880313
      pz      :     0.897432  p :     3.001017
      px      :     1.067819
      py      :     1.035767
      dz2     :     0.006266  d :     0.102252
      dxz     :     0.013069
      dyz     :     0.011415
      dx2y2   :     0.035580
      dxy     :     0.035922
  6 H s       :     0.872654  s :     0.872654
      pz      :     0.007892  p :     0.040551
      px      :     0.020513
      py      :     0.012146
  7 C s       :     2.906907  s :     2.906907
      pz      :     1.097238  p :     3.222414
      px      :     1.098526
      py      :     1.026649
      dz2     :     0.013264  d :     0.063556
      dxz     :     0.010247
      dyz     :     0.010652
      dx2y2   :     0.016894
      dxy     :     0.012500
  8 H s       :     0.872983  s :     0.872983
      pz      :     0.007819  p :     0.040521
      px      :     0.023521
      py      :     0.009181
  9 H s       :     0.858554  s :     0.858554
      pz      :     0.007216  p :     0.042633
      px      :     0.021579
      py      :     0.013838
 10 N s       :     3.032253  s :     3.032253
      pz      :     1.089224  p :     3.346897
      px      :     1.104338
      py      :     1.153335
      dz2     :     0.018352  d :     0.351742
      dxz     :     0.070502
      dyz     :     0.019923
      dx2y2   :     0.137065
      dxy     :     0.105900
 11 H s       :     0.858746  s :     0.858746
      pz      :     0.007220  p :     0.042618
      px      :     0.024801
      py      :     0.010597
 12 H s       :     0.877317  s :     0.877317
      pz      :     0.009229  p :     0.038836
      px      :     0.019514
      py      :     0.010093
 13 H s       :     0.867586  s :     0.867586
      pz      :     0.023620  p :     0.039307
      px      :     0.007352
      py      :     0.008335
 14 H s       :     0.876525  s :     0.876525
      pz      :     0.012777  p :     0.038859
      px      :     0.017888
      py      :     0.008193
 15 O s       :     3.614858  s :     3.614858
      pz      :     1.437740  p :     4.547605
      px      :     1.434993
      py      :     1.674871
      dz2     :     0.010545  d :     0.076691
      dxz     :     0.013425
      dyz     :     0.005658
      dx2y2   :     0.017078
      dxy     :     0.029984
 16 O s       :     3.615080  s :     3.615080
      pz      :     1.438319  p :     4.547583
      px      :     1.362504
      py      :     1.746760
      dz2     :     0.010549  d :     0.076714
      dxz     :     0.015833
      dyz     :     0.003170
      dx2y2   :     0.022135
      dxy     :     0.025026


                      *****************************
                      * MAYER POPULATION ANALYSIS *
                      *****************************

  NA   - Mulliken gross atomic population
  ZA   - Total nuclear charge
  QA   - Mulliken gross atomic charge
  VA   - Mayer's total valence
  BVA  - Mayer's bonded valence
  FA   - Mayer's free valence

  ATOM       NA         ZA         QA         VA         BVA        FA
  0 C      6.1312     6.0000    -0.1312     3.9358     3.9358     0.0000
  1 C      6.0946     6.0000    -0.0946     3.8881     3.8881    -0.0000
  2 C      5.7783     6.0000     0.2217     3.7756     3.7756    -0.0000
  3 C      6.0942     6.0000    -0.0942     3.8900     3.8900     0.0000
  4 C      6.1302     6.0000    -0.1302     3.9339     3.9339    -0.0000
  5 C      5.8769     6.0000     0.1231     3.9433     3.9433     0.0000
  6 H      0.8848     1.0000     0.1152     0.9574     0.9574    -0.0000
  7 C      6.3756     6.0000    -0.3756     3.8793     3.8793     0.0000
  8 H      0.8859     1.0000     0.1141     0.9577     0.9577     0.0000
  9 H      0.8593     1.0000     0.1407     0.9631     0.9631    -0.0000
 10 N      6.6183     7.0000     0.3817     3.9074     3.9074    -0.0000
 11 H      0.8603     1.0000     0.1397     0.9633     0.9633     0.0000
 12 H      0.8747     1.0000     0.1253     0.9540     0.9540    -0.0000
 13 H      0.8579     1.0000     0.1421     0.9467     0.9467     0.0000
 14 H      0.8733     1.0000     0.1267     0.9537     0.9537     0.0000
 15 O      8.4015     8.0000    -0.4015     1.9043     1.9043    -0.0000
 16 O      8.4030     8.0000    -0.4030     1.9008     1.9008     0.0000

  Mayer bond orders larger than 0.1
B(  0-C ,  1-C ) :   1.4338 B(  0-C ,  5-C ) :   1.4152 B(  0-C ,  8-H ) :   0.9372 
B(  1-C ,  2-C ) :   1.3769 B(  1-C ,  9-H ) :   0.9230 B(  2-C ,  3-C ) :   1.3814 
B(  2-C , 10-N ) :   0.8236 B(  3-C ,  4-C ) :   1.4318 B(  3-C , 11-H ) :   0.9229 
B(  4-C ,  5-C ) :   1.4156 B(  4-C ,  6-H ) :   0.9367 B(  5-C ,  7-C ) :   1.0016 
B(  7-C , 12-H ) :   0.9569 B(  7-C , 13-H ) :   0.9437 B(  7-C , 14-H ) :   0.9563 
B( 10-N , 15-O ) :   1.5255 B( 10-N , 16-O ) :   1.5222 B( 15-O , 16-O ) :   0.2595 


-------
TIMINGS
-------

Total SCF time: 0 days 0 hours 3 min 44 sec 

Total time                  ....     224.114 sec
Sum of individual times     ....     223.882 sec  ( 99.9%)

Fock matrix formation       ....     218.270 sec  ( 97.4%)
  XC integration            ....      15.598 sec  (  7.1% of F)
    Basis function eval.    ....       6.164 sec  ( 39.5% of XC)
    Density eval.           ....       3.990 sec  ( 25.6% of XC)
    XC-Functional eval.     ....       1.151 sec  (  7.4% of XC)
    XC-Potential eval.      ....       3.766 sec  ( 24.1% of XC)
Diagonalization             ....       0.171 sec  (  0.1%)
Density matrix formation    ....       0.019 sec  (  0.0%)
Population analysis         ....       0.031 sec  (  0.0%)
Initial guess               ....       1.373 sec  (  0.6%)
Orbital Transformation      ....       0.000 sec  (  0.0%)
Orbital Orthonormalization  ....       0.000 sec  (  0.0%)
DIIS solution               ....       0.051 sec  (  0.0%)
SOSCF solution              ....       0.181 sec  (  0.1%)
Grid generation             ....       3.786 sec  (  1.7%)

-------------------------   --------------------
FINAL SINGLE POINT ENERGY      -475.808415244333
-------------------------   --------------------

------------------------------------------------------------------------------
                         ORCA SCF GRADIENT CALCULATION
------------------------------------------------------------------------------

Gradient of the Kohn-Sham DFT energy:
Kohn-Sham wavefunction type      ... RKS
Hartree-Fock exchange scaling    ...    0.200
Number of operators              ...    1
Number of atoms                  ...   17
Basis set dimensions             ...  175
Integral neglect threshold       ... 2.5e-11
Integral primitive cutoff        ... 2.5e-12

Nuclear repulsion gradient       ... done
One Electron Gradient            ... done
Pre-screening matrix             ... done
Starting the two electron gradient:
Two electron gradient done
Exchange-correlation gradient    ... done

------------------
CARTESIAN GRADIENT
------------------

   1   C   :   -0.003354271    0.008416577    0.000866560
   2   C   :    0.005723129   -0.000950504   -0.000018628
   3   C   :    0.000346112   -0.004815685   -0.000065721
   4   C   :   -0.005384679   -0.001738431   -0.000990336
   5   C   :    0.001830313    0.008527500    0.001429174
   6   C   :    0.000362470   -0.003412687   -0.002941645
   7   H   :    0.001820513    0.000711512    0.000700625
   8   C   :   -0.000869740   -0.002098964    0.006242497
   9   H   :   -0.001915400    0.000431626    0.000409629
  10   H   :   -0.004846448    0.001580187   -0.000359303
  11   N   :   -0.000219460    0.000823342    0.000247283
  12   H   :    0.004528587    0.002352317    0.000530097
  13   H   :   -0.000033961   -0.000641760   -0.002764227
  14   H   :    0.000424262   -0.002886944   -0.000366008
  15   H   :    0.000965685   -0.000779436   -0.002779768
  16   O   :   -0.009309558   -0.003484894   -0.000967966
  17   O   :    0.009932448   -0.002033757    0.000827736

Difference to translation invariance:
           :   -0.0000000000    0.0000000000   -0.0000000000

Norm of the cartesian gradient     ...    0.0246218613
RMS gradient                       ...    0.0034477502
MAX gradient                       ...    0.0099324479

-------
TIMINGS
-------

Total SCF gradient time            ...       79.531 sec

One electron gradient       ....       0.456 sec  (  0.6%)
Prescreening matrices       ....       0.426 sec  (  0.5%)
Two electron gradient       ....      57.557 sec  ( 72.4%)
XC gradient                 ....      18.246 sec  ( 22.9%)
CPCM gradient               ....       2.571 sec  (  3.2%)
   A-Matrix (El+Nuc)        ....       0.024 sec  (  0.0%)
   Potential                ....       2.547 sec  (  3.2%)

                            ***************************************
                            *     ORCA property calculations      *
                            ***************************************

                                    ---------------------
                                    Active property flags
                                    ---------------------
   (+) Dipole Moment


------------------------------------------------------------------------------
                       ORCA ELECTRIC PROPERTIES CALCULATION
------------------------------------------------------------------------------

Dipole Moment Calculation                       ... on
Quadrupole Moment Calculation                   ... off
Polarizability Calculation                      ... off
GBWName                                         ... p-nitrotolueno.gbw
Electron density file                           ... p-nitrotolueno.scfp.tmp
The origin for moment calculation is the CENTER OF MASS  = (-5.918640,  0.126645 -0.055560)

-------------
DIPOLE MOMENT
-------------
                                X             Y             Z
Electronic contribution:      0.96531     -11.76571      -0.15371
Nuclear contribution   :     -1.16636      14.17224       0.20283
                        -----------------------------------------
Total Dipole Moment    :     -0.20105       2.40653       0.04912
                        -----------------------------------------
Magnitude (a.u.)       :      2.41541
Magnitude (Debye)      :      6.13949


----------------------------------------------------------------------------
                           ORCA NUMERICAL FREQUENCIES
----------------------------------------------------------------------------

Number of atoms                ... 17
Central differences            ... used
Number of displacements        ... 102
Numerical increment            ...  0.005 bohr
IR-spectrum generation         ... on
Raman-spectrum generation      ... off
Surface Crossing Hessian       ... off

The output will be reduced. Please look at the following files:
SCF program output             ... >p-nitrotolueno.lastscf
Integral program output        ... >p-nitrotolueno.lastint
Gradient program output        ... >p-nitrotolueno.lastgrad
Dipole moment program output   ... >p-nitrotolueno.lastmom


         <<<Energy and Gradient at the input geometry>>>
The origin for moment calculation is the CENTER OF MASS  = (-5.918640,  0.126645 -0.055560)
             <<<Displacing   1/coordinate 1 (+)>>>
The origin for moment calculation is the CENTER OF MASS  = (-5.918202,  0.126645 -0.055560)
             <<<Displacing   1/coordinate 1 (-)>>>
The origin for moment calculation is the CENTER OF MASS  = (-5.919077,  0.126645 -0.055560)
             <<<Displacing   1/coordinate 2 (+)>>>
The origin for moment calculation is the CENTER OF MASS  = (-5.918640,  0.127083 -0.055560)
             <<<Displacing   1/coordinate 2 (-)>>>
The origin for moment calculation is the CENTER OF MASS  = (-5.918640,  0.126207 -0.055560)
             <<<Displacing   1/coordinate 3 (+)>>>
The origin for moment calculation is the CENTER OF MASS  = (-5.918640,  0.126645 -0.055122)
             <<<Displacing   1/coordinate 3 (-)>>>
The origin for moment calculation is the CENTER OF MASS  = (-5.918640,  0.126645 -0.055998)
             <<<Displacing   2/coordinate 1 (+)>>>
The origin for moment calculation is the CENTER OF MASS  = (-5.918202,  0.126645 -0.055560)
             <<<Displacing   2/coordinate 1 (-)>>>
The origin for moment calculation is the CENTER OF MASS  = (-5.919077,  0.126645 -0.055560)
             <<<Displacing   2/coordinate 2 (+)>>>
The origin for moment calculation is the CENTER OF MASS  = (-5.918640,  0.127083 -0.055560)
             <<<Displacing   2/coordinate 2 (-)>>>
The origin for moment calculation is the CENTER OF MASS  = (-5.918640,  0.126207 -0.055560)
             <<<Displacing   2/coordinate 3 (+)>>>
The origin for moment calculation is the CENTER OF MASS  = (-5.918640,  0.126645 -0.055122)
             <<<Displacing   2/coordinate 3 (-)>>>
The origin for moment calculation is the CENTER OF MASS  = (-5.918640,  0.126645 -0.055998)
             <<<Displacing   3/coordinate 1 (+)>>>
The origin for moment calculation is the CENTER OF MASS  = (-5.918202,  0.126645 -0.055560)
             <<<Displacing   3/coordinate 1 (-)>>>
The origin for moment calculation is the CENTER OF MASS  = (-5.919077,  0.126645 -0.055560)
             <<<Displacing   3/coordinate 2 (+)>>>
The origin for moment calculation is the CENTER OF MASS  = (-5.918640,  0.127083 -0.055560)
             <<<Displacing   3/coordinate 2 (-)>>>
The origin for moment calculation is the CENTER OF MASS  = (-5.918640,  0.126207 -0.055560)
             <<<Displacing   3/coordinate 3 (+)>>>
The origin for moment calculation is the CENTER OF MASS  = (-5.918640,  0.126645 -0.055122)
             <<<Displacing   3/coordinate 3 (-)>>>
The origin for moment calculation is the CENTER OF MASS  = (-5.918640,  0.126645 -0.055998)
             <<<Displacing   4/coordinate 1 (+)>>>
The origin for moment calculation is the CENTER OF MASS  = (-5.918202,  0.126645 -0.055560)
             <<<Displacing   4/coordinate 1 (-)>>>
The origin for moment calculation is the CENTER OF MASS  = (-5.919077,  0.126645 -0.055560)
             <<<Displacing   4/coordinate 2 (+)>>>
The origin for moment calculation is the CENTER OF MASS  = (-5.918640,  0.127083 -0.055560)
             <<<Displacing   4/coordinate 2 (-)>>>
The origin for moment calculation is the CENTER OF MASS  = (-5.918640,  0.126207 -0.055560)
             <<<Displacing   4/coordinate 3 (+)>>>
The origin for moment calculation is the CENTER OF MASS  = (-5.918640,  0.126645 -0.055122)
             <<<Displacing   4/coordinate 3 (-)>>>
The origin for moment calculation is the CENTER OF MASS  = (-5.918640,  0.126645 -0.055998)
             <<<Displacing   5/coordinate 1 (+)>>>
The origin for moment calculation is the CENTER OF MASS  = (-5.918202,  0.126645 -0.055560)
             <<<Displacing   5/coordinate 1 (-)>>>
The origin for moment calculation is the CENTER OF MASS  = (-5.919077,  0.126645 -0.055560)
             <<<Displacing   5/coordinate 2 (+)>>>
The origin for moment calculation is the CENTER OF MASS  = (-5.918640,  0.127083 -0.055560)
             <<<Displacing   5/coordinate 2 (-)>>>
The origin for moment calculation is the CENTER OF MASS  = (-5.918640,  0.126207 -0.055560)
             <<<Displacing   5/coordinate 3 (+)>>>
The origin for moment calculation is the CENTER OF MASS  = (-5.918640,  0.126645 -0.055122)
             <<<Displacing   5/coordinate 3 (-)>>>
The origin for moment calculation is the CENTER OF MASS  = (-5.918640,  0.126645 -0.055998)
             <<<Displacing   6/coordinate 1 (+)>>>
The origin for moment calculation is the CENTER OF MASS  = (-5.918202,  0.126645 -0.055560)
             <<<Displacing   6/coordinate 1 (-)>>>
The origin for moment calculation is the CENTER OF MASS  = (-5.919077,  0.126645 -0.055560)
             <<<Displacing   6/coordinate 2 (+)>>>
The origin for moment calculation is the CENTER OF MASS  = (-5.918640,  0.127083 -0.055560)
             <<<Displacing   6/coordinate 2 (-)>>>
The origin for moment calculation is the CENTER OF MASS  = (-5.918640,  0.126207 -0.055560)
             <<<Displacing   6/coordinate 3 (+)>>>
The origin for moment calculation is the CENTER OF MASS  = (-5.918640,  0.126645 -0.055122)
             <<<Displacing   6/coordinate 3 (-)>>>
The origin for moment calculation is the CENTER OF MASS  = (-5.918640,  0.126645 -0.055998)
             <<<Displacing   7/coordinate 1 (+)>>>
The origin for moment calculation is the CENTER OF MASS  = (-5.918603,  0.126645 -0.055560)
             <<<Displacing   7/coordinate 1 (-)>>>
The origin for moment calculation is the CENTER OF MASS  = (-5.918676,  0.126645 -0.055560)
             <<<Displacing   7/coordinate 2 (+)>>>
The origin for moment calculation is the CENTER OF MASS  = (-5.918640,  0.126682 -0.055560)
             <<<Displacing   7/coordinate 2 (-)>>>
The origin for moment calculation is the CENTER OF MASS  = (-5.918640,  0.126608 -0.055560)
             <<<Displacing   7/coordinate 3 (+)>>>
The origin for moment calculation is the CENTER OF MASS  = (-5.918640,  0.126645 -0.055523)
             <<<Displacing   7/coordinate 3 (-)>>>
The origin for moment calculation is the CENTER OF MASS  = (-5.918640,  0.126645 -0.055597)
             <<<Displacing   8/coordinate 1 (+)>>>
The origin for moment calculation is the CENTER OF MASS  = (-5.918202,  0.126645 -0.055560)
             <<<Displacing   8/coordinate 1 (-)>>>
The origin for moment calculation is the CENTER OF MASS  = (-5.919077,  0.126645 -0.055560)
             <<<Displacing   8/coordinate 2 (+)>>>
The origin for moment calculation is the CENTER OF MASS  = (-5.918640,  0.127083 -0.055560)
             <<<Displacing   8/coordinate 2 (-)>>>
The origin for moment calculation is the CENTER OF MASS  = (-5.918640,  0.126207 -0.055560)
             <<<Displacing   8/coordinate 3 (+)>>>
The origin for moment calculation is the CENTER OF MASS  = (-5.918640,  0.126645 -0.055122)
             <<<Displacing   8/coordinate 3 (-)>>>
The origin for moment calculation is the CENTER OF MASS  = (-5.918640,  0.126645 -0.055998)
             <<<Displacing   9/coordinate 1 (+)>>>
The origin for moment calculation is the CENTER OF MASS  = (-5.918603,  0.126645 -0.055560)
             <<<Displacing   9/coordinate 1 (-)>>>
The origin for moment calculation is the CENTER OF MASS  = (-5.918676,  0.126645 -0.055560)
             <<<Displacing   9/coordinate 2 (+)>>>
The origin for moment calculation is the CENTER OF MASS  = (-5.918640,  0.126682 -0.055560)
             <<<Displacing   9/coordinate 2 (-)>>>
The origin for moment calculation is the CENTER OF MASS  = (-5.918640,  0.126608 -0.055560)
             <<<Displacing   9/coordinate 3 (+)>>>
The origin for moment calculation is the CENTER OF MASS  = (-5.918640,  0.126645 -0.055523)
             <<<Displacing   9/coordinate 3 (-)>>>
The origin for moment calculation is the CENTER OF MASS  = (-5.918640,  0.126645 -0.055597)
             <<<Displacing  10/coordinate 1 (+)>>>
The origin for moment calculation is the CENTER OF MASS  = (-5.918603,  0.126645 -0.055560)
             <<<Displacing  10/coordinate 1 (-)>>>
The origin for moment calculation is the CENTER OF MASS  = (-5.918676,  0.126645 -0.055560)
             <<<Displacing  10/coordinate 2 (+)>>>
The origin for moment calculation is the CENTER OF MASS  = (-5.918640,  0.126682 -0.055560)
             <<<Displacing  10/coordinate 2 (-)>>>
The origin for moment calculation is the CENTER OF MASS  = (-5.918640,  0.126608 -0.055560)
             <<<Displacing  10/coordinate 3 (+)>>>
The origin for moment calculation is the CENTER OF MASS  = (-5.918640,  0.126645 -0.055523)
             <<<Displacing  10/coordinate 3 (-)>>>
The origin for moment calculation is the CENTER OF MASS  = (-5.918640,  0.126645 -0.055597)
             <<<Displacing  11/coordinate 1 (+)>>>
The origin for moment calculation is the CENTER OF MASS  = (-5.918129,  0.126645 -0.055560)
             <<<Displacing  11/coordinate 1 (-)>>>
The origin for moment calculation is the CENTER OF MASS  = (-5.919150,  0.126645 -0.055560)
             <<<Displacing  11/coordinate 2 (+)>>>
The origin for moment calculation is the CENTER OF MASS  = (-5.918640,  0.127156 -0.055560)
             <<<Displacing  11/coordinate 2 (-)>>>
The origin for moment calculation is the CENTER OF MASS  = (-5.918640,  0.126134 -0.055560)
             <<<Displacing  11/coordinate 3 (+)>>>
The origin for moment calculation is the CENTER OF MASS  = (-5.918640,  0.126645 -0.055049)
             <<<Displacing  11/coordinate 3 (-)>>>
The origin for moment calculation is the CENTER OF MASS  = (-5.918640,  0.126645 -0.056071)
             <<<Displacing  12/coordinate 1 (+)>>>
The origin for moment calculation is the CENTER OF MASS  = (-5.918603,  0.126645 -0.055560)
             <<<Displacing  12/coordinate 1 (-)>>>
The origin for moment calculation is the CENTER OF MASS  = (-5.918676,  0.126645 -0.055560)
             <<<Displacing  12/coordinate 2 (+)>>>
The origin for moment calculation is the CENTER OF MASS  = (-5.918640,  0.126682 -0.055560)
             <<<Displacing  12/coordinate 2 (-)>>>
The origin for moment calculation is the CENTER OF MASS  = (-5.918640,  0.126608 -0.055560)
             <<<Displacing  12/coordinate 3 (+)>>>
The origin for moment calculation is the CENTER OF MASS  = (-5.918640,  0.126645 -0.055523)
             <<<Displacing  12/coordinate 3 (-)>>>
The origin for moment calculation is the CENTER OF MASS  = (-5.918640,  0.126645 -0.055597)
             <<<Displacing  13/coordinate 1 (+)>>>
The origin for moment calculation is the CENTER OF MASS  = (-5.918603,  0.126645 -0.055560)
             <<<Displacing  13/coordinate 1 (-)>>>
The origin for moment calculation is the CENTER OF MASS  = (-5.918676,  0.126645 -0.055560)
             <<<Displacing  13/coordinate 2 (+)>>>
The origin for moment calculation is the CENTER OF MASS  = (-5.918640,  0.126682 -0.055560)
             <<<Displacing  13/coordinate 2 (-)>>>
The origin for moment calculation is the CENTER OF MASS  = (-5.918640,  0.126608 -0.055560)
             <<<Displacing  13/coordinate 3 (+)>>>
The origin for moment calculation is the CENTER OF MASS  = (-5.918640,  0.126645 -0.055523)
             <<<Displacing  13/coordinate 3 (-)>>>
The origin for moment calculation is the CENTER OF MASS  = (-5.918640,  0.126645 -0.055597)
             <<<Displacing  14/coordinate 1 (+)>>>
The origin for moment calculation is the CENTER OF MASS  = (-5.918603,  0.126645 -0.055560)
             <<<Displacing  14/coordinate 1 (-)>>>
The origin for moment calculation is the CENTER OF MASS  = (-5.918676,  0.126645 -0.055560)
             <<<Displacing  14/coordinate 2 (+)>>>
The origin for moment calculation is the CENTER OF MASS  = (-5.918640,  0.126682 -0.055560)
             <<<Displacing  14/coordinate 2 (-)>>>
The origin for moment calculation is the CENTER OF MASS  = (-5.918640,  0.126608 -0.055560)
             <<<Displacing  14/coordinate 3 (+)>>>
The origin for moment calculation is the CENTER OF MASS  = (-5.918640,  0.126645 -0.055523)
             <<<Displacing  14/coordinate 3 (-)>>>
The origin for moment calculation is the CENTER OF MASS  = (-5.918640,  0.126645 -0.055597)
             <<<Displacing  15/coordinate 1 (+)>>>
The origin for moment calculation is the CENTER OF MASS  = (-5.918603,  0.126645 -0.055560)
             <<<Displacing  15/coordinate 1 (-)>>>
The origin for moment calculation is the CENTER OF MASS  = (-5.918676,  0.126645 -0.055560)
             <<<Displacing  15/coordinate 2 (+)>>>
The origin for moment calculation is the CENTER OF MASS  = (-5.918640,  0.126682 -0.055560)
             <<<Displacing  15/coordinate 2 (-)>>>
The origin for moment calculation is the CENTER OF MASS  = (-5.918640,  0.126608 -0.055560)
             <<<Displacing  15/coordinate 3 (+)>>>
The origin for moment calculation is the CENTER OF MASS  = (-5.918640,  0.126645 -0.055523)
             <<<Displacing  15/coordinate 3 (-)>>>
The origin for moment calculation is the CENTER OF MASS  = (-5.918640,  0.126645 -0.055597)
             <<<Displacing  16/coordinate 1 (+)>>>
The origin for moment calculation is the CENTER OF MASS  = (-5.918056,  0.126645 -0.055560)
             <<<Displacing  16/coordinate 1 (-)>>>
The origin for moment calculation is the CENTER OF MASS  = (-5.919223,  0.126645 -0.055560)
             <<<Displacing  16/coordinate 2 (+)>>>
The origin for moment calculation is the CENTER OF MASS  = (-5.918640,  0.127228 -0.055560)
             <<<Displacing  16/coordinate 2 (-)>>>
The origin for moment calculation is the CENTER OF MASS  = (-5.918640,  0.126062 -0.055560)
             <<<Displacing  16/coordinate 3 (+)>>>
The origin for moment calculation is the CENTER OF MASS  = (-5.918640,  0.126645 -0.054977)
             <<<Displacing  16/coordinate 3 (-)>>>
The origin for moment calculation is the CENTER OF MASS  = (-5.918640,  0.126645 -0.056143)
             <<<Displacing  17/coordinate 1 (+)>>>
The origin for moment calculation is the CENTER OF MASS  = (-5.918056,  0.126645 -0.055560)
             <<<Displacing  17/coordinate 1 (-)>>>
The origin for moment calculation is the CENTER OF MASS  = (-5.919223,  0.126645 -0.055560)
             <<<Displacing  17/coordinate 2 (+)>>>
The origin for moment calculation is the CENTER OF MASS  = (-5.918640,  0.127228 -0.055560)
             <<<Displacing  17/coordinate 2 (-)>>>
The origin for moment calculation is the CENTER OF MASS  = (-5.918640,  0.126062 -0.055560)
             <<<Displacing  17/coordinate 3 (+)>>>
The origin for moment calculation is the CENTER OF MASS  = (-5.918640,  0.126645 -0.054977)
             <<<Displacing  17/coordinate 3 (-)>>>
The origin for moment calculation is the CENTER OF MASS  = (-5.918640,  0.126645 -0.056143)

-----------------------
VIBRATIONAL FREQUENCIES
-----------------------

   0:         0.00 cm**-1
   1:         0.00 cm**-1
   2:         0.00 cm**-1
   3:         0.00 cm**-1
   4:         0.00 cm**-1
   5:         0.00 cm**-1
   6:        77.76 cm**-1
   7:       101.93 cm**-1
   8:       104.63 cm**-1
   9:       223.94 cm**-1
  10:       289.14 cm**-1
  11:       358.82 cm**-1
  12:       359.93 cm**-1
  13:       427.93 cm**-1
  14:       491.40 cm**-1
  15:       533.96 cm**-1
  16:       625.13 cm**-1
  17:       645.07 cm**-1
  18:       699.88 cm**-1
  19:       761.10 cm**-1
  20:       800.88 cm**-1
  21:       861.44 cm**-1
  22:       863.03 cm**-1
  23:       864.76 cm**-1
  24:       997.58 cm**-1
  25:      1002.29 cm**-1
  26:      1017.43 cm**-1
  27:      1026.89 cm**-1
  28:      1067.30 cm**-1
  29:      1127.66 cm**-1
  30:      1140.34 cm**-1
  31:      1203.11 cm**-1
  32:      1245.94 cm**-1
  33:      1329.53 cm**-1
  34:      1357.34 cm**-1
  35:      1360.36 cm**-1
  36:      1416.11 cm**-1
  37:      1431.77 cm**-1
  38:      1482.97 cm**-1
  39:      1497.90 cm**-1
  40:      1532.79 cm**-1
  41:      1566.71 cm**-1
  42:      1637.36 cm**-1
  43:      1641.55 cm**-1
  44:      3042.06 cm**-1
  45:      3115.81 cm**-1
  46:      3121.39 cm**-1
  47:      3173.90 cm**-1
  48:      3175.10 cm**-1
  49:      3197.87 cm**-1
  50:      3199.55 cm**-1


------------
NORMAL MODES
------------

These modes are the cartesian displacements weighted by the diagonal matrix
M(i,i)=1/sqrt(m[i]) where m[i] is the mass of the displaced atom
Thus, these vectors are normalized but *not* orthogonal

                  0          1          2          3          4          5    
      0       0.000000   0.000000   0.000000   0.000000   0.000000   0.000000
      1       0.000000   0.000000   0.000000   0.000000   0.000000   0.000000
      2       0.000000   0.000000   0.000000   0.000000   0.000000   0.000000
      3       0.000000   0.000000   0.000000   0.000000   0.000000   0.000000
      4       0.000000   0.000000   0.000000   0.000000   0.000000   0.000000
      5       0.000000   0.000000   0.000000   0.000000   0.000000   0.000000
      6       0.000000   0.000000   0.000000   0.000000   0.000000   0.000000
      7       0.000000   0.000000   0.000000   0.000000   0.000000   0.000000
      8       0.000000   0.000000   0.000000   0.000000   0.000000   0.000000
      9       0.000000   0.000000   0.000000   0.000000   0.000000   0.000000
     10       0.000000   0.000000   0.000000   0.000000   0.000000   0.000000
     11       0.000000   0.000000   0.000000   0.000000   0.000000   0.000000
     12       0.000000   0.000000   0.000000   0.000000   0.000000   0.000000
     13       0.000000   0.000000   0.000000   0.000000   0.000000   0.000000
     14       0.000000   0.000000   0.000000   0.000000   0.000000   0.000000
     15       0.000000   0.000000   0.000000   0.000000   0.000000   0.000000
     16       0.000000   0.000000   0.000000   0.000000   0.000000   0.000000
     17       0.000000   0.000000   0.000000   0.000000   0.000000   0.000000
     18       0.000000   0.000000   0.000000   0.000000   0.000000   0.000000
     19       0.000000   0.000000   0.000000   0.000000   0.000000   0.000000
     20       0.000000   0.000000   0.000000   0.000000   0.000000   0.000000
     21       0.000000   0.000000   0.000000   0.000000   0.000000   0.000000
     22       0.000000   0.000000   0.000000   0.000000   0.000000   0.000000
     23       0.000000   0.000000   0.000000   0.000000   0.000000   0.000000
     24       0.000000   0.000000   0.000000   0.000000   0.000000   0.000000
     25       0.000000   0.000000   0.000000   0.000000   0.000000   0.000000
     26       0.000000   0.000000   0.000000   0.000000   0.000000   0.000000
     27       0.000000   0.000000   0.000000   0.000000   0.000000   0.000000
     28       0.000000   0.000000   0.000000   0.000000   0.000000   0.000000
     29       0.000000   0.000000   0.000000   0.000000   0.000000   0.000000
     30       0.000000   0.000000   0.000000   0.000000   0.000000   0.000000
     31       0.000000   0.000000   0.000000   0.000000   0.000000   0.000000
     32       0.000000   0.000000   0.000000   0.000000   0.000000   0.000000
     33       0.000000   0.000000   0.000000   0.000000   0.000000   0.000000
     34       0.000000   0.000000   0.000000   0.000000   0.000000   0.000000
     35       0.000000   0.000000   0.000000   0.000000   0.000000   0.000000
     36       0.000000   0.000000   0.000000   0.000000   0.000000   0.000000
     37       0.000000   0.000000   0.000000   0.000000   0.000000   0.000000
     38       0.000000   0.000000   0.000000   0.000000   0.000000   0.000000
     39       0.000000   0.000000   0.000000   0.000000   0.000000   0.000000
     40       0.000000   0.000000   0.000000   0.000000   0.000000   0.000000
     41       0.000000   0.000000   0.000000   0.000000   0.000000   0.000000
     42       0.000000   0.000000   0.000000   0.000000   0.000000   0.000000
     43       0.000000   0.000000   0.000000   0.000000   0.000000   0.000000
     44       0.000000   0.000000   0.000000   0.000000   0.000000   0.000000
     45       0.000000   0.000000   0.000000   0.000000   0.000000   0.000000
     46       0.000000   0.000000   0.000000   0.000000   0.000000   0.000000
     47       0.000000   0.000000   0.000000   0.000000   0.000000   0.000000
     48       0.000000   0.000000   0.000000   0.000000   0.000000   0.000000
     49       0.000000   0.000000   0.000000   0.000000   0.000000   0.000000
     50       0.000000   0.000000   0.000000   0.000000   0.000000   0.000000
                  6          7          8          9         10         11    
      0      -0.004750  -0.020407   0.013892   0.081238   0.015770   0.132344
      1      -0.000358  -0.003649   0.002384  -0.069932   0.003089   0.052118
      2      -0.034962   0.203769  -0.119630   0.002104  -0.186776   0.006290
      3      -0.000813  -0.017579   0.018701   0.169208  -0.016194  -0.046441
      4      -0.003321  -0.003207   0.004367  -0.041444  -0.000942   0.058619
      5      -0.036027   0.185912  -0.175766   0.014335   0.143283   0.002371
      6      -0.004175   0.000035   0.016533   0.185446  -0.028706  -0.084171
      7      -0.000167  -0.000279   0.003030   0.014932  -0.000530   0.003718
      8      -0.010171   0.003899  -0.152118   0.018145   0.296945  -0.010350
      9      -0.005788   0.017015   0.020909   0.159779  -0.011983  -0.014069
     10       0.003140   0.003061   0.003203   0.067810  -0.001927  -0.090017
     11       0.009081  -0.179278  -0.196432   0.020044   0.142661  -0.010071
     12      -0.009000   0.017628   0.016087   0.067903   0.020824   0.158734
     13      -0.000498   0.003405   0.003633   0.081739   0.001883  -0.069827
     14       0.009940  -0.197913  -0.135148   0.012926  -0.188976   0.025336
     15      -0.010878  -0.003127   0.005196   0.019433   0.024578   0.175328
     16      -0.000655  -0.000347   0.002327   0.001424  -0.002269  -0.024764
     17      -0.006220  -0.000103  -0.018135   0.001067  -0.244060   0.017780
     18      -0.011912   0.034177   0.014174   0.030489   0.027304   0.218490
     19       0.001377   0.006632   0.002120   0.137215   0.006575  -0.159681
     20       0.027409  -0.359904  -0.110425   0.014275  -0.271081   0.040133
     21       0.016478   0.003243  -0.034821  -0.265793  -0.012864  -0.193263
     22       0.000715   0.000383  -0.010584  -0.021654  -0.020586  -0.062781
     23       0.026906  -0.006147   0.299238  -0.026537   0.140428  -0.021388
     24      -0.004405  -0.034706   0.010709   0.054078   0.024688   0.191361
     25      -0.003069  -0.006812   0.002147  -0.130759   0.008577   0.176436
     26      -0.049964   0.365552  -0.083470  -0.005802  -0.265048   0.004641
     27       0.001407  -0.029037   0.019224   0.210273  -0.022541  -0.103208
     28      -0.004235  -0.005869   0.004312  -0.096055  -0.003357   0.141109
     29      -0.051604   0.312825  -0.177182   0.017439   0.216976   0.003140
     30       0.001003   0.000671  -0.005622  -0.012676  -0.007386  -0.058328
     31       0.000093   0.000152  -0.000131  -0.000822   0.005175   0.031711
     32       0.004314  -0.000881   0.047118  -0.001096   0.078237  -0.006263
     33      -0.006827   0.030220   0.022664   0.191088  -0.020866  -0.071279
     34       0.004210   0.005770   0.003131   0.128658  -0.005545  -0.211742
     35       0.024657  -0.305074  -0.211091   0.026403   0.213299  -0.025219
     36      -0.183665  -0.043128   0.010217  -0.425651  -0.023855  -0.396475
     37      -0.023957  -0.007436   0.106327   0.181568   0.141886   0.248914
     38      -0.478937  -0.124252   0.553185  -0.148577   0.318821  -0.108035
     39       0.614304   0.131052  -0.206150  -0.230200  -0.021453  -0.259912
     40       0.022894   0.015562  -0.269658  -0.027472  -0.401660  -0.078916
     41       0.112302   0.008602   0.356587  -0.019180   0.263433  -0.026356
     42      -0.311961  -0.071062   0.044098  -0.418629  -0.035426  -0.361759
     43       0.007061  -0.005814   0.108510  -0.242836   0.158715  -0.395792
     44       0.486956   0.092543   0.256083   0.061904   0.271996   0.025989
     45       0.004437   0.039169  -0.015773  -0.150474   0.008067   0.007784
     46      -0.005530   0.006519   0.000515   0.209113   0.008763  -0.074739
     47       0.007833  -0.416137   0.144400  -0.012631  -0.096656  -0.000907
     48       0.002785  -0.038463  -0.016360  -0.114564   0.009382  -0.003842
     49       0.006037  -0.006306  -0.003961  -0.229943   0.008657   0.164394
     50       0.015050   0.409909   0.151433  -0.014631  -0.096697   0.004307
                 12         13         14         15         16         17    
      0      -0.099431   0.014236  -0.004712   0.007320  -0.145093   0.226595
      1      -0.171375   0.001385   0.005706  -0.092035   0.142407  -0.275954
      2       0.003346  -0.214285   0.059070  -0.000810   0.000307   0.017583
      3      -0.042419  -0.019084  -0.011132   0.235690  -0.112088  -0.179133
      4      -0.121462  -0.006268   0.004526  -0.062711   0.169840  -0.303511
      5      -0.011506   0.213884   0.115451   0.024733  -0.019446  -0.021461
      6       0.025338   0.001137   0.023276   0.169721  -0.018643  -0.110794
      7       0.072481  -0.000716   0.005774   0.014000   0.225834  -0.007317
      8      -0.014863   0.005432  -0.249546   0.015225   0.015221  -0.010706
      9       0.079746   0.020795  -0.012716   0.222826   0.088324  -0.225066
     10      -0.058447   0.006037   0.003838   0.099429   0.182834   0.273728
     11       0.005451  -0.215918   0.107741   0.023295  -0.000940  -0.017348
     12       0.017870  -0.027130  -0.007909  -0.008082   0.114525   0.180202
     13      -0.118349  -0.002390   0.004645   0.091690   0.160360   0.311010
     14       0.009590   0.211903   0.065682   0.001266   0.026510   0.022279
     15      -0.040037  -0.006097   0.025369  -0.080326   0.009931   0.111755
     16      -0.266720  -0.000266   0.005476  -0.006361  -0.141741   0.007909
     17      -0.002276   0.003324  -0.261830  -0.009942   0.007134   0.010277
     18      -0.063948  -0.050338  -0.041721  -0.104735  -0.010525   0.238861
     19      -0.002140  -0.004279   0.001759   0.237702   0.347260   0.225204
     20       0.008235   0.420635   0.375645  -0.004985  -0.007311   0.026774
     21       0.097011   0.009251   0.000055   0.032359   0.028074   0.060981
     22      -0.311996   0.001228  -0.007096   0.002609  -0.323879   0.002177
     23      -0.006799  -0.000232   0.003529   0.002823  -0.015768   0.005553
     24      -0.075680   0.031984  -0.029771  -0.064087  -0.048486   0.272019
     25      -0.122354   0.001334   0.005440  -0.251333   0.345024  -0.179201
     26       0.017218  -0.433991   0.366209  -0.012156  -0.010757   0.023739
     27       0.049790  -0.040712  -0.041299   0.343907  -0.055392  -0.253462
     28      -0.247982  -0.012426   0.001616  -0.226437   0.083204  -0.190159
     29      -0.005759   0.464471   0.426088   0.032351  -0.055502  -0.019503
     30       0.000207   0.002252   0.010466  -0.247591  -0.000612  -0.014842
     31       0.247053   0.000292  -0.001358  -0.019691   0.005652  -0.001112
     32      -0.003034   0.002014  -0.102267  -0.023324   0.002176   0.000699
     33       0.044484   0.048651  -0.042642   0.303476   0.055006  -0.279408
     34      -0.123919   0.012978   0.000030   0.278998   0.090552   0.148071
[...]
     24      -0.004440   0.263146   0.077936   0.016095  -0.114492   0.078254
     25      -0.024048   0.299680   0.112546   0.036688  -0.422888  -0.085427
     26       0.000452   0.027801   0.003889   0.000719  -0.015111   0.002585
     27       0.012941   0.259197   0.050679   0.003105   0.235868   0.087749
     28      -0.030278  -0.205756  -0.004614   0.006803  -0.437850  -0.152314
     29      -0.001068   0.025287   0.004604  -0.004001   0.013019   0.000861
     30      -0.001588  -0.030740  -0.028586  -0.000177   0.004429   0.649430
     31       0.010964  -0.004147  -0.001893  -0.003993  -0.007948   0.053591
     32       0.000157  -0.002924  -0.002712   0.000125   0.000177   0.062323
     33       0.008071   0.219691   0.048957  -0.001722  -0.159852   0.069568
     34      -0.011772   0.242080   0.008897   0.006739  -0.464948   0.184027
     35      -0.000968   0.030305   0.008194  -0.004267  -0.021281   0.004179
     36      -0.169217  -0.003539  -0.049820   0.380429   0.013605  -0.044701
     37       0.435831  -0.087515   0.348411  -0.252712   0.021485   0.221964
     38       0.236673  -0.259717   0.367513   0.507957   0.018752   0.128740
     39      -0.048150  -0.452728   0.648522   0.019451  -0.003463   0.199526
     40       0.571203  -0.079051   0.052747   0.253999   0.036532   0.010436
     41      -0.246542  -0.041871   0.082414  -0.102288  -0.002062   0.026450
     42       0.019708  -0.099924   0.136484  -0.441277  -0.021058   0.032030
     43       0.468969   0.011645  -0.297186  -0.344061   0.021841  -0.214575
     44       0.297176   0.220805  -0.378289   0.370803   0.015511  -0.134232
     45      -0.003585   0.023223   0.015078   0.001634   0.010761  -0.257329
     46      -0.003620   0.019150   0.011538   0.001453   0.010448  -0.152687
     47      -0.000266   0.002269   0.001537   0.000079   0.001212  -0.026262
     48       0.005331   0.024504   0.017028  -0.001283  -0.015580  -0.277456
     49      -0.003708  -0.014115  -0.009148   0.000893   0.009825   0.108465
     50       0.000562   0.002079   0.001458  -0.000183  -0.001337  -0.024541
                 42         43         44         45         46         47    
      0      -0.074175   0.186552  -0.000632  -0.001802   0.000656   0.024764
      1      -0.316853   0.100980   0.000928   0.000925  -0.000070  -0.011843
      2      -0.010939   0.017566  -0.000048  -0.000463   0.000073   0.001989
      3      -0.072139  -0.227872  -0.000048   0.000261   0.000083  -0.004554
      4       0.249615   0.079665  -0.000273  -0.000147  -0.000213  -0.002266
      5      -0.003057  -0.019910  -0.000064  -0.000094   0.000015  -0.000463
      6       0.000651   0.397967  -0.000016  -0.000168  -0.000047   0.000055
      7      -0.117179   0.028527   0.000056  -0.000025   0.000142   0.000324
      8      -0.001695   0.038451  -0.000012  -0.000014  -0.000015   0.000057
      9       0.040189  -0.208610   0.000104   0.000170   0.000046  -0.020751
     10       0.261762  -0.100090  -0.000215   0.000228  -0.000175   0.006479
     11       0.008151  -0.021792  -0.000034   0.000121   0.000054  -0.001995
     12       0.114979   0.205107   0.000366  -0.001278  -0.001043   0.065173
     13      -0.296193  -0.084514   0.000893  -0.000995  -0.000480   0.043544
     14       0.007439   0.019974   0.000041   0.000144  -0.000034   0.007545
     15      -0.013860  -0.321143  -0.000093   0.001211   0.000377  -0.003044
     16       0.251808  -0.019953   0.000917   0.000173  -0.001021   0.001186
     17       0.003011  -0.030848   0.000020   0.000241  -0.000584  -0.000342
     18      -0.302685  -0.040759  -0.008140   0.011958   0.009123  -0.744294
     19       0.316757   0.304540  -0.006924   0.010292   0.006840  -0.505685
     20      -0.026578   0.000971  -0.000517   0.000682   0.000176  -0.086370
     21       0.002420   0.026535   0.004199   0.088638   0.025775   0.002168
     22      -0.046150   0.000954  -0.049294   0.006571   0.006630   0.000430
     23       0.004541   0.002405  -0.001643   0.026219  -0.089185  -0.000202
     24       0.250732   0.020333   0.010848   0.017711  -0.005871  -0.286339
     25       0.379868  -0.292678  -0.006214  -0.010060   0.002565   0.133675
     26       0.026639  -0.000656   0.001317   0.002422  -0.001137  -0.022943
     27       0.218084  -0.005425  -0.000527  -0.002466   0.000272   0.053398
     28      -0.175604  -0.306460  -0.000919  -0.001602   0.000292   0.034772
     29       0.018307  -0.008389   0.000100  -0.000312   0.000017   0.005445
     30       0.007577  -0.213458  -0.000008  -0.000011   0.000005  -0.000364
     31      -0.042135  -0.019078   0.000064   0.000011  -0.000109  -0.000041
     32       0.000158  -0.020582   0.000031   0.000010  -0.000047  -0.000051
     33      -0.181813  -0.069382   0.000669  -0.002109  -0.001469   0.241573
     34      -0.218551   0.279536  -0.000845   0.000913   0.000765  -0.106923
     35      -0.023935  -0.004231   0.000119  -0.000149  -0.000122   0.022997
     36      -0.048058  -0.046130   0.479849  -0.517768  -0.430583  -0.017230
     37       0.004657   0.200394   0.242758  -0.275326  -0.224327  -0.010750
     38      -0.053063   0.084990  -0.204529   0.232137   0.167285   0.007637
     39       0.002962   0.122557  -0.083673   0.037730  -0.113795   0.000677
     40      -0.038657   0.002476   0.165177  -0.037998   0.245174  -0.000264
     41       0.008014   0.016952   0.548074  -0.118467   0.754750   0.000873
     42       0.058611   0.015670  -0.445332  -0.581484   0.234367  -0.008172
     43       0.017782  -0.193746   0.167526   0.233525  -0.087901   0.002639
     44      -0.039674  -0.093156  -0.324341  -0.428235   0.148624  -0.005764
     45       0.017288   0.070582   0.000005  -0.000013   0.000027   0.000121
     46       0.015594   0.028905  -0.000051  -0.000003   0.000027  -0.000026
     47       0.001825   0.007094  -0.000000  -0.000043  -0.000022   0.000009
     48      -0.022332   0.072551   0.000006  -0.000016  -0.000034   0.000200
     49       0.013162  -0.016009  -0.000047  -0.000003   0.000019   0.000156
     50      -0.001868   0.006759   0.000006   0.000051  -0.000003   0.000011
                  48         49         50    
      0       0.071384   0.001512  -0.022430
      1      -0.032104  -0.001704   0.013294
      2       0.005764   0.000104  -0.001805
      3      -0.020388   0.013553  -0.068457
      4      -0.010124   0.009664  -0.045514
      5      -0.002043   0.001388  -0.006984
      6       0.000056  -0.003412   0.002532
      7      -0.000639  -0.001781  -0.002099
      8      -0.000005  -0.000419   0.000227
      9       0.009885   0.074804   0.014265
     10      -0.003123  -0.034171  -0.005901
     11       0.000972   0.007026   0.001355
     12      -0.021971   0.019606   0.006262
     13      -0.013909   0.016622   0.004432
     14      -0.002525   0.002338   0.000752
     15      -0.001201  -0.001281   0.000697
     16      -0.002941   0.000788   0.001310
     17      -0.000069  -0.000122   0.000057
     18       0.246486  -0.227366  -0.068615
     19       0.166446  -0.157331  -0.046900
     20       0.028458  -0.026220  -0.008006
     21       0.001090   0.000340  -0.000221
     22      -0.000615   0.000123   0.000163
     23       0.001251  -0.000073  -0.000273
     24      -0.814658  -0.019925   0.253252
     25       0.377701   0.009991  -0.120057
     26      -0.065831  -0.001564   0.020422
     27       0.230914  -0.158940   0.775646
     28       0.150715  -0.106414   0.517933
     29       0.023855  -0.016464   0.079484
     30      -0.000157   0.001408  -0.000839
     31       0.000026  -0.000311  -0.000689
     32      -0.000014   0.000160  -0.000105
     33      -0.113102  -0.849515  -0.157254
     34       0.050169   0.386756   0.071336
     35      -0.010927  -0.080342  -0.014622
     36       0.003063  -0.002635  -0.001244
     37       0.003928  -0.002057  -0.001649
     38      -0.001788   0.001310   0.000705
     39       0.000556   0.000266  -0.000197
     40       0.000999  -0.000512  -0.000727
     41      -0.000763  -0.000150  -0.000080
     42      -0.016675  -0.000069   0.003205
     43       0.009182  -0.000556  -0.002161
     44      -0.012590  -0.000027   0.002504
     45       0.000177  -0.000224   0.000669
     46      -0.000145   0.000261  -0.000144
     47      -0.000004  -0.000008   0.000026
     48      -0.000012  -0.000656  -0.000077
     49      -0.000069  -0.000319   0.000188
     50      -0.000001  -0.000043   0.000008


-----------
IR SPECTRUM
-----------

 Mode    freq (cm**-1)   T**2         TX         TY         TZ
-------------------------------------------------------------------
   6:        77.76    0.458899  (  0.670796   0.094501   0.001354)
   7:       101.93    0.003456  ( -0.050823  -0.028375   0.008230)
   8:       104.63    0.833685  (  0.366847  -0.121713  -0.827221)
   9:       223.94    1.633114  (  1.265433   0.103225   0.145387)
  10:       289.14    5.286849  ( -0.600516  -0.272177   2.202759)
  11:       358.82    0.239124  ( -0.434780  -0.219772  -0.042311)
  12:       359.93    0.662472  (  0.203223  -0.787858  -0.021270)
  13:       427.93    0.079144  (  0.239501  -0.064650   0.132680)
  14:       491.40    5.598279  ( -0.548702   0.190398   2.293677)
  15:       533.96    1.831646  (  1.342579   0.113245   0.127687)
  16:       625.13    9.092746  ( -0.193477   3.007901  -0.088581)
  17:       645.07    0.762572  (  0.866567   0.062540   0.087874)
  18:       699.88    3.533409  (  0.042194  -0.190075  -1.869626)
  19:       761.10   42.646735  ( -1.083793  -0.015482   6.439867)
  20:       800.88   15.162173  ( -0.368512   3.874065  -0.134131)
  21:       861.44   31.878786  (  0.447914   4.582684  -3.267593)
  22:       863.03    0.724496  (  0.107339   0.790067  -0.297940)
  23:       864.76   26.277172  (  1.193487  -3.185955  -3.834378)
  24:       997.58    0.247165  (  0.344383  -0.350711  -0.074614)
  25:      1002.29    4.461714  (  1.321753  -0.318256  -1.616600)
  26:      1017.43    0.035126  ( -0.160595  -0.095204  -0.016474)
  27:      1026.89    3.720014  ( -0.110405   1.894681  -0.343522)
  28:      1067.30   29.830644  ( -0.832914   4.536028   2.925978)
  29:      1127.66   59.036620  ( -0.563196   7.662524  -0.071850)
  30:      1140.34    9.408699  (  3.052284   0.096997   0.287839)
  31:      1203.11   15.316775  (  0.352569  -3.897422  -0.050690)
  32:      1245.94    5.144149  (  0.124160  -2.238250  -0.344919)
  33:      1329.53    0.265673  ( -0.474210  -0.196328  -0.047462)
  34:      1357.34   22.142449  (  4.676944  -0.273135   0.440502)
  35:      1360.36  580.649772  (  1.900542 -24.020568  -0.223679)
  36:      1416.11    3.259794  ( -0.215028   1.735191   0.450189)
  37:      1431.77    0.288204  ( -0.499783  -0.195629  -0.012253)
  38:      1482.97    1.614025  (  1.267693   0.022465   0.080467)
  39:      1497.90    7.603205  ( -0.232191   0.234643   2.737560)
  40:      1532.79    9.978007  (  0.455666  -3.125020  -0.068022)
  41:      1566.71  290.525916  ( 16.907690   1.455322   1.593104)
  42:      1637.36   66.544692  ( -0.530995   8.139933   0.065012)
  43:      1641.55   38.526842  ( -6.163198  -0.419301  -0.604998)
  44:      3042.06   20.798979  (  0.246399  -4.546202   0.265171)
  45:      3115.81   17.216257  (  3.971722   0.156445   1.190466)
  46:      3121.39   15.479136  (  0.884551   1.412706  -3.563842)
  47:      3173.90    9.527723  (  2.784424   1.299113   0.294974)
  48:      3175.10    7.670233  (  1.714944  -2.163742   0.217768)
  49:      3197.87    0.742116  (  0.215895   0.833931   0.008003)
  50:      3199.55    1.705515  ( -0.255285   1.280511  -0.025208)

The first frequency considered to be a vibration is 6
The total number of vibrations considered is 45


--------------------------
THERMOCHEMISTRY AT 298.15K
--------------------------

Temperature         ... 298.15 K
Pressure            ... 1.00 atm
Total Mass          ... 137.14 AMU

Throughout the following assumptions are being made:
  (1) The electronic state is orbitally nondegenerate
  (2) There are no thermally accessible electronically excited states
  (3) Hindered rotations indicated by low frequency modes are not
      treated as such but are treated as vibrations and this may
      cause some error
  (4) All equations used are the standard statistical mechanics
      equations for an ideal gas
  (5) All vibrations are strictly harmonic

freq.      77.76  E(vib)   ...       0.49 
freq.     101.93  E(vib)   ...       0.46 
freq.     104.63  E(vib)   ...       0.46 
freq.     223.94  E(vib)   ...       0.33 
freq.     289.14  E(vib)   ...       0.27 
freq.     358.82  E(vib)   ...       0.22 
freq.     359.93  E(vib)   ...       0.22 
freq.     427.93  E(vib)   ...       0.18 
freq.     491.40  E(vib)   ...       0.14 
freq.     533.96  E(vib)   ...       0.13 
freq.     625.13  E(vib)   ...       0.09 
freq.     645.07  E(vib)   ...       0.09 
freq.     699.88  E(vib)   ...       0.07 
freq.     761.10  E(vib)   ...       0.06 
freq.     800.88  E(vib)   ...       0.05 
freq.     861.44  E(vib)   ...       0.04 
freq.     863.03  E(vib)   ...       0.04 
freq.     864.76  E(vib)   ...       0.04 
freq.     997.58  E(vib)   ...       0.02 
freq.    1002.29  E(vib)   ...       0.02 
freq.    1017.43  E(vib)   ...       0.02 
freq.    1026.89  E(vib)   ...       0.02 
freq.    1067.30  E(vib)   ...       0.02 
freq.    1127.66  E(vib)   ...       0.01 
freq.    1140.34  E(vib)   ...       0.01 
freq.    1203.11  E(vib)   ...       0.01 
freq.    1245.94  E(vib)   ...       0.01 
freq.    1329.53  E(vib)   ...       0.01 
freq.    1357.34  E(vib)   ...       0.01 
freq.    1360.36  E(vib)   ...       0.01 
freq.    1416.11  E(vib)   ...       0.00 
freq.    1431.77  E(vib)   ...       0.00 
freq.    1482.97  E(vib)   ...       0.00 
freq.    1497.90  E(vib)   ...       0.00 
freq.    1532.79  E(vib)   ...       0.00 
freq.    1566.71  E(vib)   ...       0.00 
freq.    1637.36  E(vib)   ...       0.00 
freq.    1641.55  E(vib)   ...       0.00 
freq.    3042.06  E(vib)   ...       0.00 
freq.    3115.81  E(vib)   ...       0.00 
freq.    3121.39  E(vib)   ...       0.00 
freq.    3173.90  E(vib)   ...       0.00 
freq.    3175.10  E(vib)   ...       0.00 
freq.    3197.87  E(vib)   ...       0.00 
freq.    3199.55  E(vib)   ...       0.00 

------------
INNER ENERGY
------------

The inner energy is: U= E(el) + E(ZPE) + E(vib) + E(rot) + E(trans)
    E(el)   - is the total energy from the electronic structure calculation
              = E(kin-el) + E(nuc-el) + E(el-el) + E(nuc-nuc)
    E(ZPE)  - the the zero temperature vibrational energy from the frequency calculation
    E(vib)  - the the finite temperature correction to E(ZPE) due to population
              of excited vibrational states
    E(rot)  - is the rotational thermal energy
    E(trans)- is the translational thermal energy

Summary of contributions to the inner energy U:
Electronic energy                ...   -475.80841524 Eh
Zero point energy                ...      0.13030970 Eh      81.77 kcal/mol
Thermal vibrational correction   ...      0.00566848 Eh       3.56 kcal/mol
Thermal rotational correction    ...      0.00141627 Eh       0.89 kcal/mol
Thermal translational correction ...      0.00141627 Eh       0.89 kcal/mol
-----------------------------------------------------------------------
Total thermal energy                   -475.66960452 Eh


Summary of corrections to the electronic energy:
(perhaps to be used in another calculation)
Total thermal correction                  0.00850103 Eh       5.33 kcal/mol
Non-thermal (ZPE) correction              0.13030970 Eh      81.77 kcal/mol
-----------------------------------------------------------------------
Total correction                          0.13881073 Eh      87.10 kcal/mol


--------
ENTHALPY
--------

The enthalpy is H = U + kB*T
                kB is Boltzmann's constant
Total free energy                 ...   -475.66960452 Eh 
Thermal Enthalpy correction       ...      0.00094421 Eh       0.59 kcal/mol
-----------------------------------------------------------------------
Total Enthalpy                    ...   -475.66866031 Eh


Vibrational entropy computed according to the QRRHO of S. Grimme
Chem.Eur.J. 2012 18 9955


-------
ENTROPY
-------

The entropy contributions are T*S = T*(S(el)+S(vib)+S(rot)+S(trans)
     S(el)   - electronic entropy
     S(vib)  - vibrational entropy
     S(rot)  - rotational entropy
     S(trans)- translational entropy
The entropies will be listed as mutliplied by the temperature to get
units of energy

Electronic entropy                ...      0.00000000 Eh      0.00 kcal/mol
Vibrational entropy               ...      0.00958656 Eh      6.02 kcal/mol
Rotational entropy                ...      0.01294138 Eh      8.12 kcal/mol
Translational entropy             ...      0.01931853 Eh     12.12 kcal/mol
-----------------------------------------------------------------------
Final entropy term                ...      0.04184646 Eh     26.26 kcal/mol


CAUTION: The rotational entropy is not quite correctly treated here
         because it includes a symmetry number that is not yet correctly
         implemented in ORCA!
For a nonlinear molecule the correct rotational entropy is:
    S(rot) = R*(ln(qrot/sn)+1.5)
    R    = 8.31441 J/mol/K = 1.987191683e-3 kcal/mol/K
    qrot = 600232.2980204
    sn is the rotational symmetry number. We have assumed 3 here
       if it is different for your molecule then you should correct
       the printed rotational entropy by manually evaluating the equation
       as given above

For convenience we print out the resulting values for sn=1 - 12:
 sn= 1  qrot/sn=  600232.2980 T*S(rot)=     8.77 kcal/mol T*S(tot)=    26.91 kcal/mol
 sn= 2  qrot/sn=  300116.1490 T*S(rot)=     8.36 kcal/mol T*S(tot)=    26.50 kcal/mol
 sn= 3  qrot/sn=  200077.4327 T*S(rot)=     8.12 kcal/mol T*S(tot)=    26.26 kcal/mol
 sn= 4  qrot/sn=  150058.0745 T*S(rot)=     7.95 kcal/mol T*S(tot)=    26.09 kcal/mol
 sn= 5  qrot/sn=  120046.4596 T*S(rot)=     7.82 kcal/mol T*S(tot)=    25.96 kcal/mol
 sn= 6  qrot/sn=  100038.7163 T*S(rot)=     7.71 kcal/mol T*S(tot)=    25.85 kcal/mol
 sn= 7  qrot/sn=   85747.4711 T*S(rot)=     7.62 kcal/mol T*S(tot)=    25.76 kcal/mol
 sn= 8  qrot/sn=   75029.0373 T*S(rot)=     7.54 kcal/mol T*S(tot)=    25.68 kcal/mol
 sn= 9  qrot/sn=   66692.4776 T*S(rot)=     7.47 kcal/mol T*S(tot)=    25.61 kcal/mol
 sn=10  qrot/sn=   60023.2298 T*S(rot)=     7.41 kcal/mol T*S(tot)=    25.55 kcal/mol
 sn=11  qrot/sn=   54566.5725 T*S(rot)=     7.35 kcal/mol T*S(tot)=    25.49 kcal/mol
 sn=12  qrot/sn=   50019.3582 T*S(rot)=     7.30 kcal/mol T*S(tot)=    25.44 kcal/mol


-------------------
GIBBS FREE ENTHALPY
-------------------

The Gibbs free enthalpy is G = H - T*S

Total enthalpy                    ...   -475.66866031 Eh 
Total entropy correction          ...     -0.04184646 Eh    -26.26 kcal/mol
-----------------------------------------------------------------------
Final Gibbs free enthalpy         ...   -475.71050677 Eh

For completeness - the Gibbs free enthalpy minus the electronic energy
G-E(el)                           ...      0.09790848 Eh     61.44 kcal/mol


Total Time for Numerical Frequencies  :     18504.306 sec
Time for Reference State(s)           :       125.114 sec
Time for Displacements                :     18378.260 sec

Timings for individual modules:

Sum of individual times         ...      429.260 sec (=   7.154 min)
GTO integral calculation        ...        1.400 sec (=   0.023 min)   0.3 %
SCF iterations                  ...      266.674 sec (=   4.445 min)  62.1 %
SCF Gradient evaluation         ...      161.186 sec (=   2.686 min)  37.5 %
                             ****ORCA TERMINATED NORMALLY****
TOTAL RUN TIME: 0 days 5 hours 13 minutes 29 seconds 46 msec
