17
	Energy:      51.3961565
C         -4.45138        1.42970       -0.13567
C         -4.34379        0.03693       -0.14664
C         -3.08075       -0.55758       -0.03724
C         -1.93073        0.23159        0.08689
C         -2.04965        1.62348        0.09688
C         -3.30658        2.23146       -0.02726
H         -1.15360        2.23291        0.20115
C         -3.43303        3.72686        0.01876
H         -5.43592        1.88780       -0.21345
H         -5.24651       -0.56350       -0.23737
N         -2.96176       -2.02052       -0.04742
H         -0.94358       -0.21644        0.17902
H         -2.53014        4.20823       -0.37142
H         -3.59225        4.05689        1.04988
H         -4.27313        4.06560       -0.59662
O         -4.00335       -2.68391       -0.15525
O         -1.82652       -2.50829        0.05236
