15
	Energy:      18.4821745
C         -4.47996        1.44956        0.00000
C         -4.39658        0.05625       -0.00000
C         -3.15072       -0.56804       -0.00000
C         -1.98802        0.20043       -0.00000
C         -2.06996        1.59417        0.00000
C         -3.31701        2.23041        0.00000
H         -1.15309        2.17887        0.00000
C         -3.42060        3.72663        0.00000
H         -5.45827        1.92478        0.00000
H         -5.30404       -0.54161       -0.00000
H         -3.08580       -1.65272       -0.00000
H         -1.01596       -0.28553       -0.00000
H         -2.43231        4.19803       -0.00000
H         -3.95506        4.06755        0.89251
H         -3.95506        4.06755       -0.89251
