
                                 *****************
                                 * O   R   C   A *
                                 *****************

           --- An Ab Initio, DFT and Semiempirical electronic structure package ---

                  #######################################################
                  #                        -***-                        #
                  #  Department of molecular theory and spectroscopy    #
                  #              Directorship: Frank Neese              #
                  # Max Planck Institute for Chemical Energy Conversion #
                  #                  D-45470 Muelheim/Ruhr              #
                  #                       Germany                       #
                  #                                                     #
                  #                  All rights reserved                #
                  #                        -***-                        #
                  #######################################################


                         Program Version 4.0.1 -  RELEASE  -


 With contributions from (in alphabetic order):
   Daniel Aravena         : Magnetic Properties
   Michael Atanasov       : Ab Initio Ligand Field Theory
   Ute Becker             : Parallelization
   Martin Brehm           : Molecular dynamics
   Dmytro Bykov           : SCF Hessian
   Vijay G. Chilkuri      : MRCI spin determinant printing
   Dipayan Datta          : RHF DLPNO-CCSD density
   Achintya Kumar Dutta   : EOM-CC, STEOM-CC
   Dmitry Ganyushin       : Spin-Orbit,Spin-Spin,Magnetic field MRCI
   Yang Guo               : DLPNO-NEVPT2, CIM, IAO-localization
   Andreas Hansen         : Spin unrestricted coupled pair/coupled cluster methods
   Lee Huntington         : MR-EOM, pCC
   Robert Izsak           : Overlap fitted RIJCOSX, COSX-SCS-MP3, EOM
   Christian Kollmar      : KDIIS, OOCD, Brueckner-CCSD(T), CCSD density
   Simone Kossmann        : Meta GGA functionals, TD-DFT gradient, OOMP2, MP2 Hessian
   Martin Krupicka        : AUTO-CI
   Dagmar Lenk            : GEPOL surface
   Dimitrios Liakos       : Extrapolation schemes; parallel MDCI
   Dimitrios Manganas     : ROCIS; embedding schemes
   Dimitrios Pantazis     : SARC Basis sets
   Taras Petrenko         : DFT Hessian,TD-DFT gradient, ASA, ECA, R-Raman, ABS, FL, XAS/XES, NRVS
   Peter Pinski           : DLPNO-MP2
   Christoph Reimann      : Effective Core Potentials
   Marius Retegan         : Local ZFS, SOC
   Christoph Riplinger    : Optimizer, TS searches, QM/MM, DLPNO-CCSD(T), (RO)-DLPNO pert. Triples
   Tobias Risthaus        : Range-separated hybrids, TD-DFT gradient, RPA, STAB
   Michael Roemelt        : Restricted open shell CIS
   Masaaki Saitow         : Open-shell DLPNO
   Barbara Sandhoefer     : DKH picture change effects
   Kantharuban Sivalingam : CASSCF convergence, NEVPT2, FIC-MRCI
   Georgi Stoychev        : AutoAux
   Boris Wezisla          : Elementary symmetry handling
   Frank Wennmohs         : Technical directorship


 We gratefully acknowledge several colleagues who have allowed us to
 interface, adapt or use parts of their codes:
   Stefan Grimme, W. Hujo, H. Kruse,             : VdW corrections, initial TS optimization,
                  C. Bannwarth                     DFT functionals, gCP, sTDA/sTD-DF
   Ed Valeev                                     : LibInt (2-el integral package), F12 methods
   Garnet Chan, S. Sharma, J. Yang, R. Olivares  : DMRG
   Ulf Ekstrom                                   : XCFun DFT Library
   Mihaly Kallay                                 : mrcc  (arbitrary order and MRCC methods)
   Andreas Klamt, Michael Diedenhofen            : otool_cosmo (COSMO solvation model)
   Jiri Pittner, Ondrej Demel                    : Mk-CCSD
   Frank Weinhold                                : gennbo (NPA and NBO analysis)
   Christopher J. Cramer and Donald G. Truhlar   : smd solvation model


 Your calculation uses the libint2 library for the computation of 2-el integrals
 For citations please refer to: http://libint.valeyev.net

 This ORCA versions uses:
   CBLAS   interface :  Fast vector & matrix operations
   LAPACKE interface :  Fast linear algebra routines
   SCALAPACK package :  Parallel linear algebra routines




*****************************************
The coordinations will be read from file: tolueno.xyz
*****************************************


Your calculation utilizes the basis: 6-31G(d,p)
   H-He, Li-Ne : W. J. Hehre, R. Ditchfield and J.A. Pople, J. Chem. Phys. 56, 2257 (1972).
                 Note: He and Ne are unpublished basis sets taken from the Gaussian program.
                 Note: Li and B from J. D. Dill and J. A. Pople, J. Chem. Phys. 62, 2921 (1975).
   Na - Ar     : M. M. Francl, W. J. Pietro, W. J. Hehre, J. S. Binkley, M. S. Gordon, 
                 D. J. DeFrees and J. A. Pople, J. Chem. Phys. 77, 3654 (1982).
   K - Zn      : V. A. Rassolov, J. A. Pople, M. A. Ratner, and T. L. Windus, J. Chem. Phys. 109, 1223 (1998).

================================================================================
                                        WARNINGS
                       Please study these warnings very carefully!
================================================================================

Warning: TCutStore was < 0. Adjusted to Thresh (uncritical)

INFO   : the flag for use of LIBINT has been found!

================================================================================
                                       INPUT FILE
================================================================================
NAME = tolueno.inp
|  1> ! B3LYP 6-31G(d,p) Freq
|  2> 
|  3> * xyzfile 0 1 tolueno.xyz
|  4> 
|  5>                          ****END OF INPUT****
================================================================================

                       ****************************
                       * Single Point Calculation *
                       ****************************

---------------------------------
CARTESIAN COORDINATES (ANGSTROEM)
---------------------------------
  C     -4.479960    1.449560    0.000000
  C     -4.396580    0.056250   -0.000000
  C     -3.150720   -0.568040   -0.000000
  C     -1.988020    0.200430   -0.000000
  C     -2.069960    1.594170    0.000000
  C     -3.317010    2.230410    0.000000
  H     -1.153090    2.178870    0.000000
  C     -3.420600    3.726630    0.000000
  H     -5.458270    1.924780    0.000000
  H     -5.304040   -0.541610   -0.000000
  H     -3.085800   -1.652720   -0.000000
  H     -1.015960   -0.285530   -0.000000
  H     -2.432310    4.198030   -0.000000
  H     -3.955060    4.067550    0.892510
  H     -3.955060    4.067550   -0.892510

----------------------------
CARTESIAN COORDINATES (A.U.)
----------------------------
  NO LB      ZA    FRAG     MASS         X           Y           Z
   0 C     6.0000    0    12.011   -8.465897    2.739271    0.000000
   1 C     6.0000    0    12.011   -8.308332    0.106297   -0.000000
   2 C     6.0000    0    12.011   -5.953998   -1.073440   -0.000000
   3 C     6.0000    0    12.011   -3.756813    0.378758   -0.000000
   4 C     6.0000    0    12.011   -3.911658    3.012545    0.000000
   5 C     6.0000    0    12.011   -6.268240    4.214864    0.000000
   6 H     1.0000    0     1.008   -2.179024    4.117468    0.000000
   7 C     6.0000    0    12.011   -6.463997    7.042310    0.000000
   8 H     1.0000    0     1.008  -10.314635    3.637307    0.000000
   9 H     1.0000    0     1.008  -10.023183   -1.023495   -0.000000
  10 H     1.0000    0     1.008   -5.831317   -3.123188   -0.000000
  11 H     1.0000    0     1.008   -1.919886   -0.539574   -0.000000
  12 H     1.0000    0     1.008   -4.596400    7.933127   -0.000000
  13 H     1.0000    0     1.008   -7.473980    7.686556    1.686599
  14 H     1.0000    0     1.008   -7.473980    7.686556   -1.686599

--------------------------------
INTERNAL COORDINATES (ANGSTROEM)
--------------------------------
 C      0   0   0     0.000000000000     0.00000000     0.00000000
 C      1   0   0     1.395802629493     0.00000000     0.00000000
 C      2   1   0     1.393522566627   120.03973853     0.00000000
 C      3   2   1     1.393706364662   119.92279305     0.00000000
 C      4   3   2     1.396146608061   120.09751249     0.00000000
 C      5   4   3     1.399976799843   120.39512487     0.00000000
 H      5   4   3     1.087439509536   119.16156168   180.00000085
 C      6   5   4     1.499801712394   120.99101861   180.00000000
 H      1   2   3     1.087623328409   119.33311729   180.00000000
 H      2   1   3     1.086701537314   119.95333491   180.00000085
 H      3   2   1     1.086621051149   120.04023215   180.00000085
 H      4   3   2     1.086764815956   119.97610805   180.00000085
 H      8   6   5     1.094958941742   111.53994234     0.00000000
 H      8   6   5     1.094736515377   110.14479879   240.27298506
 H      8   6   5     1.094736515377   110.14479879   119.72701494

---------------------------
INTERNAL COORDINATES (A.U.)
---------------------------
 C      0   0   0     0.000000000000     0.00000000     0.00000000
 C      1   0   0     2.637684706749     0.00000000     0.00000000
 C      2   1   0     2.633376012365   120.03973853     0.00000000
 C      3   2   1     2.633723340315   119.92279305     0.00000000
 C      4   3   2     2.638334732038   120.09751249     0.00000000
 C      5   4   3     2.645572745548   120.39512487     0.00000000
 H      5   4   3     2.054962860229   119.16156168   180.00000085
 C      6   5   4     2.834214491611   120.99101861   180.00000000
 H      1   2   3     2.055310227557   119.33311729   180.00000000
 H      2   1   3     2.053568294834   119.95333491   180.00000085
 H      3   2   1     2.053416198025   120.04023215   180.00000085
 H      4   3   2     2.053687874138   119.97610805   180.00000085
 H      8   6   5     2.069172527780   111.53994234     0.00000000
 H      8   6   5     2.068752202866   110.14479879   240.27298506
 H      8   6   5     2.068752202866   110.14479879   119.72701494

---------------------
BASIS SET INFORMATION
---------------------
There are 2 groups of distinct atoms

 Group   1 Type C   : 10s4p1d contracted to 3s2p1d pattern {631/31/1}
 Group   2 Type H   : 4s1p contracted to 2s1p pattern {31/1}

Atom   0C    basis set group =>   1
Atom   1C    basis set group =>   1
Atom   2C    basis set group =>   1
Atom   3C    basis set group =>   1
Atom   4C    basis set group =>   1
Atom   5C    basis set group =>   1
Atom   6H    basis set group =>   2
Atom   7C    basis set group =>   1
Atom   8H    basis set group =>   2
Atom   9H    basis set group =>   2
Atom  10H    basis set group =>   2
Atom  11H    basis set group =>   2
Atom  12H    basis set group =>   2
Atom  13H    basis set group =>   2
Atom  14H    basis set group =>   2
------------------------------------------------------------------------------
                           ORCA GTO INTEGRAL CALCULATION
------------------------------------------------------------------------------

                         BASIS SET STATISTICS AND STARTUP INFO

 # of primitive gaussian shells          ...  145
 # of primitive gaussian functions       ...  245
 # of contracted shells                  ...   66
 # of contracted basis functions         ...  138
 Highest angular momentum                ...    2
 Maximum contraction depth               ...    6
 Integral package used                   ... LIBINT
 Integral threshhold            Thresh   ...  1.000e-10
 Primitive cut-off              TCut     ...  1.000e-11


------------------------------ INTEGRAL EVALUATION ----------------------------


 * One electron integrals 
 Pre-screening matrix                    ... done
 Shell pair data                         ... done (   0.002 sec)

-------------------------------------------------------------------------------
                                 ORCA SCF
-------------------------------------------------------------------------------

------------
SCF SETTINGS
------------
Hamiltonian:
 Density Functional     Method          .... DFT(GTOs)
 Exchange Functional    Exchange        .... B88
   X-Alpha parameter    XAlpha          ....  0.666667
   Becke's b parameter  XBeta           ....  0.004200
 Correlation Functional Correlation     .... LYP
 LDA part of GGA corr.  LDAOpt          .... VWN-5
 Gradients option       PostSCFGGA      .... off
 Hybrid DFT is turned on
   Fraction HF Exchange ScalHFX         ....  0.200000
   Scaling of DF-GGA-X  ScalDFX         ....  0.720000
   Scaling of DF-GGA-C  ScalDFC         ....  0.810000
   Scaling of DF-LDA-C  ScalLDAC        ....  1.000000
   Perturbative correction              ....  0.000000
   NL short-range parameter             ....  4.800000


General Settings:
 Integral files         IntName         .... tolueno
 Hartree-Fock type      HFTyp           .... RHF
 Total Charge           Charge          ....    0
 Multiplicity           Mult            ....    1
 Number of Electrons    NEL             ....   50
 Basis Dimension        Dim             ....  138
 Nuclear Repulsion      ENuc            ....    269.1961452265 Eh

Convergence Acceleration:
 DIIS                   CNVDIIS         .... on
   Start iteration      DIISMaxIt       ....    12
   Startup error        DIISStart       ....  0.200000
   # of expansion vecs  DIISMaxEq       ....     5
   Bias factor          DIISBfac        ....   1.050
   Max. coefficient     DIISMaxC        ....  10.000
 Newton-Raphson         CNVNR           .... off
 SOSCF                  CNVSOSCF        .... on
   Start iteration      SOSCFMaxIt      ....   150
   Startup grad/error   SOSCFStart      ....  0.003300
 Level Shifting         CNVShift        .... on
   Level shift para.    LevelShift      ....    0.2500
   Turn off err/grad.   ShiftErr        ....    0.0010
 Zerner damping         CNVZerner       .... off
 Static damping         CNVDamp         .... on
   Fraction old density DampFac         ....    0.7000
   Max. Damping (<1)    DampMax         ....    0.9800
   Min. Damping (>=0)   DampMin         ....    0.0000
   Turn off err/grad.   DampErr         ....    0.1000
 Fernandez-Rico         CNVRico         .... off

SCF Procedure:
 Maximum # iterations   MaxIter         ....   125
 SCF integral mode      SCFMode         .... Direct
   Integral package                     .... LIBINT
 Reset frequeny         DirectResetFreq ....    20
 Integral Threshold     Thresh          ....  1.000e-10 Eh
 Primitive CutOff       TCut            ....  1.000e-11 Eh

Convergence Tolerance:
 Convergence Check Mode ConvCheckMode   .... Total+1el-Energy
 Convergence forced     ConvForced      .... 0
 Energy Change          TolE            ....  1.000e-06 Eh
 1-El. energy change                    ....  1.000e-03 Eh
 Orbital Gradient       TolG            ....  5.000e-05
 Orbital Rotation angle TolX            ....  5.000e-05
 DIIS Error             TolErr          ....  1.000e-06


Diagonalization of the overlap matrix:
Smallest eigenvalue                        ... 4.805e-04
Time for diagonalization                   ...    0.009 sec
Threshold for overlap eigenvalues          ... 1.000e-08
Number of eigenvalues below threshold      ... 0
Time for construction of square roots      ...    0.003 sec
Total time needed                          ...    0.012 sec

-------------------
DFT GRID GENERATION
-------------------

General Integration Accuracy     IntAcc      ...  4.340
Radial Grid Type                 RadialGrid  ... Gauss-Chebyshev
Angular Grid (max. acc.)         AngularGrid ... Lebedev-110
Angular grid pruning method      GridPruning ... 3 (G Style)
Weight generation scheme         WeightScheme... Becke
Basis function cutoff            BFCut       ...    1.0000e-10
Integration weight cutoff        WCut        ...    1.0000e-14
Grids for H and He will be reduced by one unit

# of grid points (after initial pruning)     ...  17944 (   0.0 sec)
# of grid points (after weights+screening)   ...  16651 (   0.1 sec)
nearest neighbour list constructed           ...    0.0 sec
Grid point re-assignment to atoms done       ...    0.0 sec
Grid point division into batches done        ...    0.0 sec
Reduced shell lists constructed in    0.4 sec

Total number of grid points                  ...    16651
Total number of batches                      ...      266
Average number of points per batch           ...       62
Average number of grid points per atom       ...     1110
Average number of shells per batch           ...    45.91 (69.56%)
Average number of basis functions per batch  ...    96.07 (69.61%)
Average number of large shells per batch     ...    35.59 (77.52%)
Average number of large basis fcns per batch ...    74.40 (77.44%)
Maximum spatial batch extension              ...  19.90, 21.48, 33.38 au
Average spatial batch extension              ...   3.79,  3.66,  4.70 au

Time for grid setup =    0.490 sec

------------------------------
INITIAL GUESS: MODEL POTENTIAL
------------------------------
Loading Hartree-Fock densities                     ... done
Calculating cut-offs                               ... done
Setting up the integral package                    ... done
Initializing the effective Hamiltonian             ... done
Starting the Coulomb interaction                   ... done (   0.3 sec)
Reading the grid                                   ... done
Mapping shells                                     ... done
Starting the XC term evaluation                    ... done (   0.4 sec)
  promolecular density results
     # of electrons  =     49.997371782
     EX              =    -38.348885652
     EC              =     -1.634622546
     EX+EC           =    -39.983508198
Transforming the Hamiltonian                       ... done (   0.0 sec)
Diagonalizing the Hamiltonian                      ... done (   0.0 sec)
Back transforming the eigenvectors                 ... done (   0.0 sec)
Now organizing SCF variables                       ... done
                      ------------------
                      INITIAL GUESS DONE (   1.4 sec)
                      ------------------
--------------
SCF ITERATIONS
--------------
ITER       Energy         Delta-E        Max-DP      RMS-DP      [F,P]     Damp
               ***  Starting incremental Fock matrix formation  ***
  0   -271.2027980688   0.000000000000 0.05883840  0.00216160  0.1708813 0.7000
  1   -271.2854158940  -0.082617825171 0.04069431  0.00164457  0.0925937 0.7000
                               ***Turning on DIIS***
  2   -271.3223432500  -0.036927356015 0.06546799  0.00286546  0.0383043 0.0000
  3   -271.3736093608  -0.051266110769 0.02784712  0.00115431  0.0470070 0.0000
  4   -271.3874599487  -0.013850587889 0.00975832  0.00035058  0.0096241 0.0000
                      *** Initiating the SOSCF procedure ***
                           *** Shutting down DIIS ***
                      *** Re-Reading the Fockian *** 
                      *** Removing any level shift *** 
ITER      Energy       Delta-E        Grad      Rot      Max-DP    RMS-DP
  5   -271.38820993  -0.0007499791  0.000884  0.000884  0.003297  0.000121
               *** Restarting incremental Fock matrix formation ***
  6   -271.38825579  -0.0000458649  0.000374  0.001278  0.001841  0.000072
  7   -271.38825463   0.0000011599  0.000496  0.000840  0.000993  0.000026
  8   -271.38825982  -0.0000051910  0.000112  0.000316  0.000410  0.000017
  9   -271.38825961   0.0000002175  0.000124  0.000180  0.000212  0.000009
                  ***Gradient check signals convergence***
              ***Rediagonalizing the Fockian in SOSCF/NRSCF***

               *****************************************************
               *                     SUCCESS                       *
               *           SCF CONVERGED AFTER  10 CYCLES          *
               *****************************************************

Setting up the final grid:

General Integration Accuracy     IntAcc      ...  4.670
Radial Grid Type                 RadialGrid  ... Gauss-Chebyshev
Angular Grid (max. acc.)         AngularGrid ... Lebedev-302
Angular grid pruning method      GridPruning ... 3 (G Style)
Weight generation scheme         WeightScheme... Becke
Basis function cutoff            BFCut       ...    1.0000e-10
Integration weight cutoff        WCut        ...    1.0000e-14
Grids for H and He will be reduced by one unit

# of grid points (after initial pruning)     ...  70636 (   0.0 sec)
# of grid points (after weights+screening)   ...  64767 (   0.4 sec)
nearest neighbour list constructed           ...    0.0 sec
Grid point re-assignment to atoms done       ...    0.0 sec
Grid point division into batches done        ...    0.3 sec
Reduced shell lists constructed in    1.6 sec

Total number of grid points                  ...    64767
Total number of batches                      ...     1020
Average number of points per batch           ...       63
Average number of grid points per atom       ...     4318
Average number of shells per batch           ...    41.71 (63.20%)
Average number of basis functions per batch  ...    86.81 (62.90%)
Average number of large shells per batch     ...    31.65 (75.87%)
Average number of large basis fcns per batch ...    65.73 (75.72%)
Maximum spatial batch extension              ...  19.80, 20.24, 23.14 au
Average spatial batch extension              ...   2.59,  2.56,  2.78 au

Final grid set up in    2.0 sec
Final integration                            ... done (   1.8 sec)
Change in XC energy                          ...    -0.000612904
Integrated number of electrons               ...    49.999884750
Previous integrated no of electrons          ...    49.999088899

----------------
TOTAL SCF ENERGY
----------------

Total Energy       :         -271.38887301 Eh           -7384.86667 eV

Components:
Nuclear Repulsion  :          269.19614523 Eh            7325.19952 eV
Electronic Energy  :         -540.58501824 Eh          -14710.06619 eV
One Electron Energy:         -897.72351757 Eh          -24428.29882 eV
Two Electron Energy:          357.13849933 Eh            9718.23263 eV

Virial components:
Potential Energy   :         -541.07717361 Eh          -14723.45842 eV
Kinetic Energy     :          269.68830059 Eh            7338.59175 eV
Virial Ratio       :            2.00630570


DFT components:
N(Alpha)           :       24.999942374882 electrons
N(Beta)            :       24.999942374882 electrons
N(Total)           :       49.999884749764 electrons
E(X)               :      -31.066840956762 Eh       
E(C)               :       -1.938854565589 Eh       
E(XC)              :      -33.005695522351 Eh       

---------------
SCF CONVERGENCE
---------------

  Last Energy change         ...   -5.0397e-07  Tolerance :   1.0000e-06
  Last MAX-Density change    ...    4.4872e-05  Tolerance :   1.0000e-05
  Last RMS-Density change    ...    1.5986e-06  Tolerance :   1.0000e-06
  Last Orbital Gradient      ...    1.0461e-05  Tolerance :   5.0000e-05
  Last Orbital Rotation      ...    2.5798e-05  Tolerance :   5.0000e-05

             **** THE GBW FILE WAS UPDATED (tolueno.gbw) ****
             **** DENSITY FILE WAS UPDATED (tolueno.scfp.tmp) ****
             **** ENERGY FILE WAS UPDATED (tolueno.en.tmp) ****
----------------
ORBITAL ENERGIES
----------------

  NO   OCC          E(Eh)            E(eV) 
   0   2.0000     -10.183105      -277.0964 
   1   2.0000     -10.175914      -276.9007 
   2   2.0000     -10.175485      -276.8890 
   3   2.0000     -10.173511      -276.8353 
   4   2.0000     -10.173417      -276.8327 
   5   2.0000     -10.173182      -276.8263 
   6   2.0000     -10.171781      -276.7882 
   7   2.0000      -0.844731       -22.9863 
   8   2.0000      -0.762661       -20.7531 
   9   2.0000      -0.733500       -19.9596 
  10   2.0000      -0.675358       -18.3774 
  11   2.0000      -0.594486       -16.1768 
  12   2.0000      -0.572549       -15.5799 
  13   2.0000      -0.499880       -13.6024 
  14   2.0000      -0.448632       -12.2079 
  15   2.0000      -0.445329       -12.1180 
  16   2.0000      -0.416234       -11.3263 
  17   2.0000      -0.410072       -11.1586 
  18   2.0000      -0.396708       -10.7950 
  19   2.0000      -0.374891       -10.2013 
  20   2.0000      -0.344077        -9.3628 
  21   2.0000      -0.330689        -8.9985 
  22   2.0000      -0.329629        -8.9697 
  23   2.0000      -0.240633        -6.5480 
  24   2.0000      -0.231372        -6.2960 
  25   0.0000       0.006384         0.1737 
  26   0.0000       0.011920         0.3244 
  27   0.0000       0.099597         2.7102 
  28   0.0000       0.125437         3.4133 
  29   0.0000       0.140463         3.8222 
  30   0.0000       0.151046         4.1102 
  31   0.0000       0.164414         4.4739 
  32   0.0000       0.176610         4.8058 
  33   0.0000       0.193882         5.2758 
  34   0.0000       0.202251         5.5035 
  35   0.0000       0.206192         5.6108 
  36   0.0000       0.246280         6.7016 
  37   0.0000       0.313313         8.5257 
  38   0.0000       0.324746         8.8368 
  39   0.0000       0.327389         8.9087 
  40   0.0000       0.359656         9.7867 
  41   0.0000       0.457565        12.4510 
  42   0.0000       0.522663        14.2224 
  43   0.0000       0.526778        14.3344 
  44   0.0000       0.550782        14.9875 
  45   0.0000       0.560691        15.2572 
  46   0.0000       0.565484        15.3876 
  47   0.0000       0.588201        16.0058 
  48   0.0000       0.608616        16.5613 
  49   0.0000       0.608671        16.5628 
  50   0.0000       0.619565        16.8592 
  51   0.0000       0.630533        17.1577 
  52   0.0000       0.642373        17.4799 
  53   0.0000       0.649559        17.6754 
  54   0.0000       0.677446        18.4342 
  55   0.0000       0.696590        18.9552 
  56   0.0000       0.718134        19.5414 
  57   0.0000       0.762403        20.7460 
  58   0.0000       0.764577        20.8052 
  59   0.0000       0.821756        22.3611 
  60   0.0000       0.826421        22.4880 
  61   0.0000       0.833257        22.6741 
  62   0.0000       0.853288        23.2192 
  63   0.0000       0.870511        23.6878 
  64   0.0000       0.889211        24.1967 
  65   0.0000       0.917852        24.9760 
  66   0.0000       0.936166        25.4744 
  67   0.0000       0.957672        26.0596 
  68   0.0000       0.972687        26.4682 
  69   0.0000       1.012346        27.5473 
  70   0.0000       1.096337        29.8328 
  71   0.0000       1.118156        30.4266 
  72   0.0000       1.136363        30.9220 
  73   0.0000       1.173411        31.9301 
  74   0.0000       1.208589        32.8874 
  75   0.0000       1.264055        34.3967 
  76   0.0000       1.285798        34.9883 
  77   0.0000       1.363456        37.1015 
  78   0.0000       1.375004        37.4158 
  79   0.0000       1.414424        38.4884 
  80   0.0000       1.430103        38.9151 
  81   0.0000       1.434487        39.0344 
  82   0.0000       1.442332        39.2478 
  83   0.0000       1.465114        39.8678 
  84   0.0000       1.737315        47.2747 
  85   0.0000       1.743143        47.4333 
  86   0.0000       1.786067        48.6014 
  87   0.0000       1.802808        49.0569 
  88   0.0000       1.837171        49.9920 
  89   0.0000       1.880295        51.1654 
  90   0.0000       1.899007        51.6746 
  91   0.0000       1.930761        52.5387 
  92   0.0000       1.973761        53.7088 
  93   0.0000       1.979019        53.8518 
  94   0.0000       1.985534        54.0291 
  95   0.0000       2.001886        54.4741 
  96   0.0000       2.034689        55.3667 
  97   0.0000       2.047105        55.7046 
  98   0.0000       2.062135        56.1135 
  99   0.0000       2.094255        56.9876 
 100   0.0000       2.104083        57.2550 
 101   0.0000       2.152828        58.5814 
 102   0.0000       2.215242        60.2798 
 103   0.0000       2.295322        62.4589 
 104   0.0000       2.305048        62.7235 
 105   0.0000       2.329693        63.3942 
 106   0.0000       2.383733        64.8647 
 107   0.0000       2.383987        64.8716 
 108   0.0000       2.411703        65.6258 
 109   0.0000       2.418860        65.8205 
 110   0.0000       2.447805        66.6082 
 111   0.0000       2.453314        66.7581 
 112   0.0000       2.483967        67.5922 
 113   0.0000       2.507925        68.2441 
 114   0.0000       2.542353        69.1809 
 115   0.0000       2.573372        70.0250 
 116   0.0000       2.605260        70.8927 
 117   0.0000       2.606095        70.9155 
 118   0.0000       2.660568        72.3977 
 119   0.0000       2.672218        72.7147 
 120   0.0000       2.732441        74.3535 
 121   0.0000       2.750448        74.8435 
 122   0.0000       2.780335        75.6568 
 123   0.0000       2.840525        77.2946 
 124   0.0000       2.869927        78.0947 
 125   0.0000       2.883398        78.4612 
 126   0.0000       3.061884        83.3181 
 127   0.0000       3.071073        83.5682 
 128   0.0000       3.198346        87.0314 
 129   0.0000       3.209721        87.3409 
 130   0.0000       3.245960        88.3271 
 131   0.0000       3.254019        88.5463 
 132   0.0000       3.352422        91.2240 
 133   0.0000       3.428639        93.2980 
 134   0.0000       3.440344        93.6165 
 135   0.0000       3.487194        94.8914 
 136   0.0000       3.524496        95.9064 
 137   0.0000       3.933482       107.0355 

                    ********************************
                    * MULLIKEN POPULATION ANALYSIS *
                    ********************************

-----------------------
MULLIKEN ATOMIC CHARGES
-----------------------
   0 C :   -0.114286
   1 C :   -0.080792
   2 C :   -0.093917
   3 C :   -0.081440
   4 C :   -0.116469
   5 C :    0.114537
   6 H :    0.076914
   7 C :   -0.368722
   8 H :    0.076166
   9 H :    0.081357
  10 H :    0.084734
  11 H :    0.079395
  12 H :    0.104868
  13 H :    0.118827
  14 H :    0.118827
Sum of atomic charges:   -0.0000000

--------------------------------
MULLIKEN REDUCED ORBITAL CHARGES
--------------------------------
  0 C s       :     3.178385  s :     3.178385
      pz      :     1.008761  p :     2.901524
      px      :     0.950548
      py      :     0.942215
      dz2     :     0.002864  d :     0.034377
      dxz     :     0.002820
      dyz     :     0.005176
      dx2y2   :     0.011289
      dxy     :     0.012227
  1 C s       :     3.171197  s :     3.171197
      pz      :     0.985510  p :     2.874517
      px      :     0.948181
      py      :     0.940826
      dz2     :     0.002845  d :     0.035077
      dxz     :     0.003402
      dyz     :     0.005145
      dx2y2   :     0.010792
      dxy     :     0.012892
  2 C s       :     3.164656  s :     3.164656
      pz      :     1.000982  p :     2.894394
      px      :     0.932293
      py      :     0.961119
      dz2     :     0.002850  d :     0.034867
      dxz     :     0.006062
      dyz     :     0.002141
      dx2y2   :     0.013376
      dxy     :     0.010437
  3 C s       :     3.170930  s :     3.170930
      pz      :     0.985397  p :     2.875550
      px      :     0.952739
      py      :     0.937415
      dz2     :     0.002851  d :     0.034959
      dxz     :     0.002953
      dyz     :     0.005533
      dx2y2   :     0.011420
      dxy     :     0.012204
  4 C s       :     3.172397  s :     3.172397
      pz      :     1.011282  p :     2.909467
      px      :     0.951344
      py      :     0.946841
      dz2     :     0.002858  d :     0.034605
      dxz     :     0.003228
      dyz     :     0.004818
      dx2y2   :     0.010825
      dxy     :     0.012876
  5 C s       :     3.137615  s :     3.137615
      pz      :     0.953529  p :     2.706459
      px      :     0.886928
      py      :     0.866002
      dz2     :     0.002927  d :     0.041389
      dxz     :     0.006247
      dyz     :     0.005666
      dx2y2   :     0.012913
      dxy     :     0.013637
  6 H s       :     0.910883  s :     0.910883
      pz      :     0.002804  p :     0.012203
      px      :     0.005896
      py      :     0.003503
  7 C s       :     3.241416  s :     3.241416
      pz      :     1.049172  p :     3.095214
      px      :     1.062902
      py      :     0.983140
      dz2     :     0.006409  d :     0.032092
      dxz     :     0.006288
      dyz     :     0.005782
      dx2y2   :     0.007183
      dxy     :     0.006429
  8 H s       :     0.911617  s :     0.911617
      pz      :     0.002791  p :     0.012217
      px      :     0.006459
      py      :     0.002967
  9 H s       :     0.906422  s :     0.906422
      pz      :     0.002729  p :     0.012221
      px      :     0.005844
      py      :     0.003647
 10 H s       :     0.903068  s :     0.903068
      pz      :     0.002799  p :     0.012198
      px      :     0.001925
      py      :     0.007473
 11 H s       :     0.908351  s :     0.908351
      pz      :     0.002742  p :     0.012253
      px      :     0.006447
      py      :     0.003064
 12 H s       :     0.883816  s :     0.883816
      pz      :     0.002366  p :     0.011316
      px      :     0.005953
      py      :     0.002997
 13 H s       :     0.869695  s :     0.869695
      pz      :     0.005315  p :     0.011478
      px      :     0.003427
      py      :     0.002736
 14 H s       :     0.869695  s :     0.869695
      pz      :     0.005315  p :     0.011478
      px      :     0.003427
      py      :     0.002736


                     *******************************
                     * LOEWDIN POPULATION ANALYSIS *
                     *******************************

----------------------
LOEWDIN ATOMIC CHARGES
----------------------
   0 C :   -0.079060
   1 C :   -0.069548
   2 C :   -0.081781
   3 C :   -0.070110
   4 C :   -0.081432
   5 C :   -0.012231
   6 H :    0.069470
   7 C :   -0.193165
   8 H :    0.069564
   9 H :    0.071543
  10 H :    0.071769
  11 H :    0.071056
  12 H :    0.073724
  13 H :    0.080101
  14 H :    0.080101

-------------------------------
LOEWDIN REDUCED ORBITAL CHARGES
-------------------------------
  0 C s       :     2.896779  s :     2.896779
      pz      :     0.995014  p :     3.099153
      px      :     1.048155
      py      :     1.055984
      dz2     :     0.005395  d :     0.083128
      dxz     :     0.005272
      dyz     :     0.011042
      dx2y2   :     0.029819
      dxy     :     0.031601
  1 C s       :     2.897347  s :     2.897347
      pz      :     0.971291  p :     3.087426
      px      :     1.055598
      py      :     1.060538
      dz2     :     0.005414  d :     0.084775
      dxz     :     0.006735
      dyz     :     0.011068
      dx2y2   :     0.028828
      dxy     :     0.032730
  2 C s       :     2.895817  s :     2.895817
      pz      :     0.987022  p :     3.101713
      px      :     1.063479
      py      :     1.051213
      dz2     :     0.005448  d :     0.084250
      dxz     :     0.013356
      dyz     :     0.003585
      dx2y2   :     0.033633
      dxy     :     0.028229
  3 C s       :     2.897563  s :     2.897563
      pz      :     0.971972  p :     3.088023
      px      :     1.054086
      py      :     1.061965
      dz2     :     0.005417  d :     0.084524
      dxz     :     0.005618
      dyz     :     0.012064
      dx2y2   :     0.030001
      dxy     :     0.031423
  4 C s       :     2.897482  s :     2.897482
      pz      :     0.996329  p :     3.100461
      px      :     1.047328
      py      :     1.056804
      dz2     :     0.005418  d :     0.083490
      dxz     :     0.006266
      dyz     :     0.010222
      dx2y2   :     0.028875
      dxy     :     0.032709
  5 C s       :     2.873978  s :     2.873978
      pz      :     0.944073  p :     3.036236
      px      :     1.067827
      py      :     1.024337
      dz2     :     0.006111  d :     0.102017
      dxz     :     0.013456
      dyz     :     0.010769
      dx2y2   :     0.036322
      dxy     :     0.035359
  6 H s       :     0.890688  s :     0.890688
      pz      :     0.008081  p :     0.039842
      px      :     0.020230
      py      :     0.011531
  7 C s       :     2.906421  s :     2.906421
      pz      :     1.090870  p :     3.221534
      px      :     1.093521
      py      :     1.037142
      dz2     :     0.012627  d :     0.065211
      dxz     :     0.011655
      dyz     :     0.011776
      dx2y2   :     0.015948
      dxy     :     0.013204
  8 H s       :     0.890654  s :     0.890654
      pz      :     0.008019  p :     0.039782
      px      :     0.022219
      py      :     0.009545
  9 H s       :     0.888885  s :     0.888885
      pz      :     0.007738  p :     0.039572
      px      :     0.019886
      py      :     0.011948
 10 H s       :     0.888494  s :     0.888494
      pz      :     0.007976  p :     0.039738
      px      :     0.005895
      py      :     0.025867
 11 H s       :     0.889391  s :     0.889391
      pz      :     0.007757  p :     0.039553
      px      :     0.021914
      py      :     0.009882
 12 H s       :     0.888005  s :     0.888005
      pz      :     0.006719  p :     0.038271
      px      :     0.021665
      py      :     0.009887
 13 H s       :     0.881253  s :     0.881253
      pz      :     0.019050  p :     0.038646
      px      :     0.011161
      py      :     0.008435
 14 H s       :     0.881253  s :     0.881253
      pz      :     0.019050  p :     0.038646
      px      :     0.011161
      py      :     0.008435


                      *****************************
                      * MAYER POPULATION ANALYSIS *
                      *****************************

  NA   - Mulliken gross atomic population
  ZA   - Total nuclear charge
  QA   - Mulliken gross atomic charge
  VA   - Mayer's total valence
  BVA  - Mayer's bonded valence
  FA   - Mayer's free valence

  ATOM       NA         ZA         QA         VA         BVA        FA
  0 C      6.1143     6.0000    -0.1143     3.9429     3.9429     0.0000
  1 C      6.0808     6.0000    -0.0808     3.9557     3.9557    -0.0000
  2 C      6.0939     6.0000    -0.0939     3.9589     3.9589     0.0000
  3 C      6.0814     6.0000    -0.0814     3.9561     3.9561     0.0000
  4 C      6.1165     6.0000    -0.1165     3.9639     3.9639    -0.0000
  5 C      5.8855     6.0000     0.1145     3.9711     3.9711    -0.0000
  6 H      0.9231     1.0000     0.0769     0.9608     0.9608     0.0000
  7 C      6.3687     6.0000    -0.3687     3.8879     3.8879    -0.0000
  8 H      0.9238     1.0000     0.0762     0.9602     0.9602    -0.0000
  9 H      0.9186     1.0000     0.0814     0.9578     0.9578     0.0000
 10 H      0.9153     1.0000     0.0847     0.9573     0.9573     0.0000
 11 H      0.9206     1.0000     0.0794     0.9584     0.9584    -0.0000
 12 H      0.8951     1.0000     0.1049     0.9588     0.9588     0.0000
 13 H      0.8812     1.0000     0.1188     0.9512     0.9512    -0.0000
 14 H      0.8812     1.0000     0.1188     0.9512     0.9512    -0.0000

  Mayer bond orders larger than 0.1
B(  0-C ,  1-C ) :   1.4471 B(  0-C ,  5-C ) :   1.4280 B(  0-C ,  8-H ) :   0.9429 
B(  1-C ,  2-C ) :   1.4439 B(  1-C ,  9-H ) :   0.9431 B(  2-C ,  3-C ) :   1.4581 
B(  2-C , 10-H ) :   0.9436 B(  3-C ,  4-C ) :   1.4358 B(  3-C , 11-H ) :   0.9432 
B(  4-C ,  5-C ) :   1.4499 B(  4-C ,  6-H ) :   0.9389 B(  5-C ,  7-C ) :   0.9943 
B(  7-C , 12-H ) :   0.9631 B(  7-C , 13-H ) :   0.9546 B(  7-C , 14-H ) :   0.9546 


-------
TIMINGS
-------

Total SCF time: 0 days 0 hours 1 min 18 sec 

Total time                  ....      78.101 sec
Sum of individual times     ....      78.029 sec  ( 99.9%)

Fock matrix formation       ....      74.459 sec  ( 95.3%)
  XC integration            ....       7.251 sec  (  9.7% of F)
    Basis function eval.    ....       2.893 sec  ( 39.9% of XC)
    Density eval.           ....       1.697 sec  ( 23.4% of XC)
    XC-Functional eval.     ....       0.579 sec  (  8.0% of XC)
    XC-Potential eval.      ....       1.846 sec  ( 25.5% of XC)
Diagonalization             ....       0.073 sec  (  0.1%)
Density matrix formation    ....       0.006 sec  (  0.0%)
Population analysis         ....       0.015 sec  (  0.0%)
Initial guess               ....       0.908 sec  (  1.2%)
Orbital Transformation      ....       0.000 sec  (  0.0%)
Orbital Orthonormalization  ....       0.000 sec  (  0.0%)
DIIS solution               ....       0.020 sec  (  0.0%)
SOSCF solution              ....       0.050 sec  (  0.1%)
Grid generation             ....       2.498 sec  (  3.2%)

-------------------------   --------------------
FINAL SINGLE POINT ENERGY      -271.388873014218
-------------------------   --------------------


                            ***************************************
                            *     ORCA property calculations      *
                            ***************************************

                                    ---------------------
                                    Active property flags
                                    ---------------------
   (+) Dipole Moment


------------------------------------------------------------------------------
                       ORCA ELECTRIC PROPERTIES CALCULATION
------------------------------------------------------------------------------

Dipole Moment Calculation                       ... on
Quadrupole Moment Calculation                   ... off
Polarizability Calculation                      ... off
GBWName                                         ... tolueno.gbw
Electron density file                           ... tolueno.scfp.tmp
The origin for moment calculation is the CENTER OF MASS  = (-6.166989,  2.429034  0.000000)

-------------
DIPOLE MOMENT
-------------
                                X             Y             Z
Electronic contribution:      0.21157      -3.31485       0.00000
Nuclear contribution   :     -0.23656       3.44668       0.00000
                        -----------------------------------------
Total Dipole Moment    :     -0.02499       0.13183       0.00000
                        -----------------------------------------
Magnitude (a.u.)       :      0.13418
Magnitude (Debye)      :      0.34105


-------------------------------------------------------------------------------
                               ORCA SCF HESSIAN
-------------------------------------------------------------------------------

Hessian of the Kohn-Sham DFT energy:
Kohn-Sham wavefunction type                      ... RKS
Hartree-Fock exchange scaling                    ...    0.200
Number of operators                              ...    1
Number of atoms                                  ...   15
Basis set dimensions                             ...  138
Integral neglect threshold                       ... 1.0e-10
Integral primitive cutoff                        ... 1.0e-11

Setting up DFT Hessian calculations              ... 
Electron density on the grid                     ... found on disk
Electron density on the final grid               ... found on disk
Building xc-kernel on the grid                   ... done   (      0.1 sec)
Building xc-kernel on the final grid             ... done   (      0.3 sec)
                                                     done   (      0.4 sec)

Nuclear repulsion Hessian                        ... done   (      0.0 sec)

----------------------------------------------
Forming right-hand sides of CP-SCF equations     ...
----------------------------------------------
One electron integral derivatives                ... done   (      0.4 sec)
Transforming the overlap derivative matrices     ... done   (      0.3 sec)
Making the Q(x) pseudodensities                  ... done   (      0.1 sec)
Adding the E*S(x)*S(y) terms to the Hessian      ... done   (      0.0 sec)
Calculating energy weighted overlap derivatives  ... done   (      0.0 sec)
Two electron integral derivatives                ... done   (     35.5 sec)
Exchange-correlation integral derivatives        ... done   (     71.2 sec)
tr(F(y)Q(x)) contribution to the Hessian         ... done   (      0.0 sec)
Response fock operator R(S(x))                   ... done   (    124.9 sec)
XC Response fock operator R(S(x))                ... done   (     28.6 sec)
tr(F(y)S(x)) contribution to the Hessian         ... done   (      0.0 sec)
Transforming and finalizing RHSs                 ... done   (      0.1 sec)

----------------------------------------------
Solving the CP-SCF equations                     ...
----------------------------------------------
     CP-SCF ITERATION   0: 
     CP-SCF ITERATION   1:      0.003501200565
     CP-SCF ITERATION   2:      0.000630672120
     CP-SCF ITERATION   3:      0.000065069437
     CP-SCF ITERATION   4:      0.000004329015
     CP-SCF ITERATION   5:      0.000000935312

                                                 ... done   (   1113.4 sec)
Forming perturbed density Hessian contributions  ... done   (      0.0 sec)
Making the perturbed densities                   ... done   (      0.1 sec)
2nd integral derivative contribs                 ... done   (    192.4 sec)
Exchange-correlation Hessian                     ... done   (     60.6 sec)
Dipol derivatives                                ... done   (      1.6 sec)

Total SCF Hessian time: 0 days 0 hours 27 min 9 sec 

Writing the Hessian file to the disk             ... done


-----------------------
VIBRATIONAL FREQUENCIES
-----------------------

   0:         0.00 cm**-1
   1:         0.00 cm**-1
   2:         0.00 cm**-1
   3:         0.00 cm**-1
   4:         0.00 cm**-1
   5:         0.00 cm**-1
   6:        42.18 cm**-1
   7:       207.97 cm**-1
   8:       337.79 cm**-1
   9:       415.84 cm**-1
  10:       476.15 cm**-1
  11:       530.72 cm**-1
  12:       636.05 cm**-1
  13:       710.36 cm**-1
  14:       744.87 cm**-1
  15:       808.90 cm**-1
  16:       857.46 cm**-1
  17:       908.26 cm**-1
  18:       966.57 cm**-1
  19:       994.05 cm**-1
  20:      1005.25 cm**-1
  21:      1018.63 cm**-1
  22:      1058.19 cm**-1
  23:      1073.05 cm**-1
  24:      1117.40 cm**-1
  25:      1188.49 cm**-1
  26:      1205.58 cm**-1
  27:      1252.43 cm**-1
  28:      1347.01 cm**-1
  29:      1361.69 cm**-1
  30:      1420.06 cm**-1
  31:      1478.73 cm**-1
  32:      1502.31 cm**-1
  33:      1512.32 cm**-1
  34:      1544.54 cm**-1
  35:      1648.74 cm**-1
  36:      1664.78 cm**-1
  37:      3040.74 cm**-1
  38:      3114.08 cm**-1
  39:      3115.42 cm**-1
  40:      3169.36 cm**-1
  41:      3172.35 cm**-1
  42:      3182.53 cm**-1
  43:      3191.38 cm**-1
  44:      3202.63 cm**-1


------------
NORMAL MODES
------------

These modes are the cartesian displacements weighted by the diagonal matrix
M(i,i)=1/sqrt(m[i]) where m[i] is the mass of the displaced atom
Thus, these vectors are normalized but *not* orthogonal

                  0          1          2          3          4          5    
      0       0.000000   0.000000   0.000000   0.000000   0.000000   0.000000
      1       0.000000   0.000000   0.000000   0.000000   0.000000   0.000000
      2       0.000000   0.000000   0.000000   0.000000   0.000000   0.000000
      3       0.000000   0.000000   0.000000   0.000000   0.000000   0.000000
      4       0.000000   0.000000   0.000000   0.000000   0.000000   0.000000
      5       0.000000   0.000000   0.000000   0.000000   0.000000   0.000000
      6       0.000000   0.000000   0.000000   0.000000   0.000000   0.000000
      7       0.000000   0.000000   0.000000   0.000000   0.000000   0.000000
      8       0.000000   0.000000   0.000000   0.000000   0.000000   0.000000
      9       0.000000   0.000000   0.000000   0.000000   0.000000   0.000000
     10       0.000000   0.000000   0.000000   0.000000   0.000000   0.000000
     11       0.000000   0.000000   0.000000   0.000000   0.000000   0.000000
     12       0.000000   0.000000   0.000000   0.000000   0.000000   0.000000
     13       0.000000   0.000000   0.000000   0.000000   0.000000   0.000000
     14       0.000000   0.000000   0.000000   0.000000   0.000000   0.000000
     15       0.000000   0.000000   0.000000   0.000000   0.000000   0.000000
     16       0.000000   0.000000   0.000000   0.000000   0.000000   0.000000
     17       0.000000   0.000000   0.000000   0.000000   0.000000   0.000000
     18       0.000000   0.000000   0.000000   0.000000   0.000000   0.000000
     19       0.000000   0.000000   0.000000   0.000000   0.000000   0.000000
     20       0.000000   0.000000   0.000000   0.000000   0.000000   0.000000
     21       0.000000   0.000000   0.000000   0.000000   0.000000   0.000000
     22       0.000000   0.000000   0.000000   0.000000   0.000000   0.000000
     23       0.000000   0.000000   0.000000   0.000000   0.000000   0.000000
     24       0.000000   0.000000   0.000000   0.000000   0.000000   0.000000
     25       0.000000   0.000000   0.000000   0.000000   0.000000   0.000000
     26       0.000000   0.000000   0.000000   0.000000   0.000000   0.000000
     27       0.000000   0.000000   0.000000   0.000000   0.000000   0.000000
     28       0.000000   0.000000   0.000000   0.000000   0.000000   0.000000
     29       0.000000   0.000000   0.000000   0.000000   0.000000   0.000000
     30       0.000000   0.000000   0.000000   0.000000   0.000000   0.000000
     31       0.000000   0.000000   0.000000   0.000000   0.000000   0.000000
     32       0.000000   0.000000   0.000000   0.000000   0.000000   0.000000
     33       0.000000   0.000000   0.000000   0.000000   0.000000   0.000000
     34       0.000000   0.000000   0.000000   0.000000   0.000000   0.000000
     35       0.000000   0.000000   0.000000   0.000000   0.000000   0.000000
     36       0.000000   0.000000   0.000000   0.000000   0.000000   0.000000
     37       0.000000   0.000000   0.000000   0.000000   0.000000   0.000000
     38       0.000000   0.000000   0.000000   0.000000   0.000000   0.000000
     39       0.000000   0.000000   0.000000   0.000000   0.000000   0.000000
     40       0.000000   0.000000   0.000000   0.000000   0.000000   0.000000
     41       0.000000   0.000000   0.000000   0.000000   0.000000   0.000000
     42       0.000000   0.000000   0.000000   0.000000   0.000000   0.000000
     43       0.000000   0.000000   0.000000   0.000000   0.000000   0.000000
     44       0.000000   0.000000   0.000000   0.000000   0.000000   0.000000
                  6          7          8          9         10         11    
      0      -0.000000  -0.000000   0.124125  -0.000000   0.000000   0.148410
      1      -0.000000  -0.000000   0.068883   0.000000  -0.000000  -0.042179
      2      -0.054023   0.159988   0.000000   0.209989   0.044544   0.000000
      3       0.000000   0.000000  -0.021521  -0.000000   0.000000   0.130985
      4      -0.000000  -0.000000   0.081379   0.000000  -0.000000  -0.097658
      5      -0.017106  -0.020822  -0.000000  -0.212473   0.132799  -0.000000
      6       0.000000   0.000000  -0.065129   0.000000   0.000000   0.013424
      7      -0.000000  -0.000000   0.000775   0.000000  -0.000000  -0.303435
      8       0.030589  -0.180902  -0.000000   0.001840  -0.200064   0.000000
      9       0.000000  -0.000000  -0.008908   0.000000  -0.000000  -0.119512
     10      -0.000000   0.000000  -0.077200  -0.000000  -0.000000  -0.116868
     11       0.030465   0.002927   0.000000   0.208534   0.130014  -0.000000
     12      -0.000000  -0.000000   0.134559  -0.000000  -0.000000  -0.125132
     13      -0.000000   0.000000  -0.048486  -0.000000  -0.000000  -0.062361
     14      -0.005662   0.177957   0.000000  -0.210354   0.044774  -0.000000
     15      -0.000000  -0.000000   0.154790  -0.000000  -0.000000  -0.007597
     16       0.000000  -0.000000   0.004918  -0.000000   0.000000   0.225721
     17      -0.037550   0.136543   0.000000  -0.001104  -0.288027   0.000000
     18      -0.000000  -0.000000   0.188424  -0.000000   0.000000   0.002618
     19       0.000000   0.000000  -0.131084   0.000000  -0.000000  -0.255114
     20      -0.004984   0.226972   0.000000  -0.447706   0.298005  -0.000000
     21       0.000000   0.000000  -0.229440   0.000000  -0.000000  -0.035564
     22       0.000000   0.000000  -0.022231  -0.000000   0.000000   0.363648
     23       0.036491  -0.190655  -0.000000  -0.000815   0.011256  -0.000000
     24      -0.000000  -0.000000   0.173761   0.000000   0.000000   0.046959
     25      -0.000000  -0.000000   0.170957   0.000000  -0.000000  -0.244266
     26      -0.090921   0.193393   0.000000   0.459032   0.317226  -0.000000
     27       0.000000   0.000000  -0.075429   0.000000  -0.000000   0.021770
     28      -0.000000  -0.000000   0.164276  -0.000000   0.000000   0.065354
     29      -0.029453  -0.093573  -0.000000  -0.447578   0.397905  -0.000000
     30       0.000000   0.000000  -0.135075  -0.000000  -0.000000   0.011747
     31      -0.000000   0.000000  -0.003378   0.000000  -0.000000  -0.303758
     32       0.058099  -0.406105  -0.000000   0.012521  -0.336958   0.000000
     33       0.000000  -0.000000  -0.054582   0.000000  -0.000000  -0.036386
     34       0.000000   0.000000  -0.169864   0.000000   0.000000   0.045482
     35       0.054573  -0.048956   0.000000   0.459274   0.380086  -0.000000
     36       0.000000   0.000000  -0.404445   0.000000  -0.000000  -0.034285
     37      -0.000000  -0.000000   0.342586  -0.000000   0.000000   0.367361
     38      -0.485685  -0.565351  -0.000000   0.007129   0.194122   0.000000
     39       0.497803   0.212115  -0.373454   0.001185  -0.010405  -0.036088
     40      -0.024196   0.253860  -0.234636  -0.013319  -0.288921   0.359865
     41       0.349257  -0.159822  -0.004810   0.004768   0.117762   0.000822
     42      -0.497803  -0.212115  -0.373454  -0.001185   0.010405  -0.036088
     43       0.024196  -0.253860  -0.234636   0.013319   0.288921   0.359865
     44       0.349257  -0.159822   0.004810   0.004768   0.117762  -0.000822
                 12         13         14         15         16         17    
      0       0.211027  -0.000000   0.000000   0.162767   0.000000  -0.000000
      1      -0.226927  -0.000000  -0.000000   0.089408  -0.000000  -0.000000
      2       0.000000   0.121488  -0.075678  -0.000000  -0.079671  -0.085453
      3      -0.227690   0.000000   0.000000   0.208838  -0.000000  -0.000000
      4      -0.274111  -0.000000   0.000000   0.145711  -0.000000  -0.000000
      5      -0.000000  -0.175751  -0.012839  -0.000000  -0.069871   0.005862
      6      -0.137170   0.000000  -0.000000   0.012462   0.000000   0.000000
      7      -0.005455  -0.000000  -0.000000  -0.163531   0.000000   0.000000
      8       0.000000   0.128014  -0.093491   0.000000  -0.001588   0.101389
      9      -0.255773   0.000000  -0.000000  -0.229487   0.000000   0.000000
     10       0.245374  -0.000000   0.000000   0.122312  -0.000000  -0.000000
     11       0.000000  -0.178091  -0.015087   0.000000   0.069177   0.012171
     12       0.184864  -0.000000  -0.000000  -0.183041   0.000000   0.000000
     13       0.250057  -0.000000   0.000000   0.074020  -0.000000  -0.000000
     14       0.000000   0.127793  -0.074761   0.000000   0.076948  -0.087304
     15       0.132908   0.000000   0.000000  -0.000349  -0.000000  -0.000000
     16       0.006998   0.000000   0.000000   0.034036   0.000000   0.000000
     17      -0.000000  -0.143285   0.100984  -0.000000   0.005659   0.015676
     18       0.270402   0.000000   0.000000  -0.147583  -0.000000   0.000000
     19       0.113519  -0.000000   0.000000   0.002530   0.000000  -0.000000
     20      -0.000000   0.518176   0.237174  -0.000000  -0.522347   0.528727
     21       0.056015   0.000000   0.000000   0.030429  -0.000000  -0.000000
     22       0.001696   0.000000  -0.000000  -0.278508   0.000000   0.000000
     23       0.000000  -0.024777   0.020511   0.000000  -0.003063   0.025872
     24       0.280527  -0.000000   0.000000   0.132312   0.000000  -0.000000
     25      -0.080007  -0.000000  -0.000000   0.008792   0.000000   0.000000
     26      -0.000000   0.517905   0.221339   0.000000   0.512960   0.522554
     27      -0.314371   0.000000  -0.000000   0.048124  -0.000000  -0.000000
     28      -0.141559  -0.000000   0.000000   0.397670  -0.000000  -0.000000
     29      -0.000000   0.034112   0.509948  -0.000000   0.476609  -0.058696
     30       0.298919  -0.000000  -0.000000   0.016416   0.000000   0.000000
     31       0.020719  -0.000000  -0.000000  -0.157424   0.000000   0.000000
     32      -0.000000   0.545169   0.496492  -0.000000   0.010097  -0.595255
     33      -0.328279   0.000000  -0.000000  -0.094926   0.000000   0.000000
     34       0.099368   0.000000   0.000000   0.401731  -0.000000  -0.000000
     35      -0.000000   0.017140   0.529175  -0.000000  -0.463277  -0.085173
     36       0.070076  -0.000000   0.000000   0.022679   0.000000   0.000000
     37      -0.024841   0.000000  -0.000000  -0.276887  -0.000000  -0.000000
     38      -0.000000   0.023317  -0.099245  -0.000000   0.009859  -0.082186
     39       0.074772   0.015686  -0.005620   0.001847   0.004806  -0.019178
     40       0.020509  -0.122625   0.175886  -0.327907  -0.001861   0.149263
     41       0.003154   0.033640  -0.051611  -0.000387   0.002401  -0.044755
     42       0.074772  -0.015686   0.005620   0.001847  -0.004806   0.019178
     43       0.020509   0.122625  -0.175886  -0.327907   0.001861  -0.149263
     44      -0.003154   0.033640  -0.051611   0.000387   0.002401  -0.044755
                 18         19         20         21         22         23    
      0       0.000000   0.000000   0.146401   0.223600   0.043652  -0.000000
      1       0.000000  -0.000000  -0.045417  -0.103160   0.063760  -0.000000
      2      -0.086633  -0.032876   0.000000  -0.000000   0.000000   0.035808
      3       0.000000   0.000000   0.013733  -0.080446  -0.179037   0.000000
      4       0.000000   0.000000   0.028887  -0.052175  -0.037549   0.000000
      5       0.091802   0.078071  -0.000000   0.000000   0.000000  -0.002655
      6      -0.000000  -0.000000  -0.042234   0.012546   0.010116  -0.000000
      7      -0.000000   0.000000   0.071517   0.265176  -0.159971   0.000000
      8       0.003856  -0.088214   0.000000  -0.000000  -0.000000  -0.003855
      9       0.000000  -0.000000   0.042686   0.041537   0.181651  -0.000000
     10      -0.000000  -0.000000  -0.029282   0.000494  -0.015407  -0.000000
     11      -0.093585   0.076581  -0.000000   0.000000   0.000000  -0.000423
     12       0.000000   0.000000  -0.010836  -0.300086  -0.051890   0.000000
     13       0.000000  -0.000000  -0.020697  -0.166996   0.058137  -0.000000
     14       0.083431  -0.030691  -0.000000   0.000000   0.000000   0.039044
     15      -0.000000  -0.000000  -0.052477   0.036676  -0.001280  -0.000000
     16       0.000000   0.000000   0.002444   0.028909   0.023248  -0.000000
     17       0.002663  -0.009846  -0.000000  -0.000000  -0.000000  -0.141409
     18       0.000000   0.000000  -0.025443  -0.345780  -0.238130   0.000000
     19      -0.000000  -0.000000   0.006593  -0.119594   0.355517   0.000000
     20      -0.456616   0.252497   0.000000  -0.000000   0.000000  -0.165915
     21      -0.000000  -0.000000  -0.140125   0.094592   0.000370  -0.000000
     22       0.000000  -0.000000  -0.018977   0.019346  -0.024136   0.000000
     23      -0.002807   0.006000   0.000000   0.000000   0.000000   0.152653
     24       0.000000  -0.000000   0.159222   0.269611   0.198453  -0.000000
     25       0.000000  -0.000000  -0.036775  -0.020353   0.391284  -0.000000
     26       0.472795   0.266896  -0.000000   0.000000   0.000000  -0.123240
     27      -0.000000   0.000000  -0.055184  -0.052067  -0.401905   0.000000
     28       0.000000  -0.000000   0.146098  -0.078557   0.279412  -0.000000
     29      -0.514709  -0.517687   0.000000  -0.000000  -0.000000  -0.015539
     30      -0.000000  -0.000000  -0.168775   0.113186   0.012109  -0.000000
     31      -0.000000   0.000000   0.066018   0.278684  -0.176721   0.000000
     32      -0.021537   0.562036  -0.000000   0.000000   0.000000   0.022137
     33      -0.000000  -0.000000  -0.002164   0.092528   0.368081  -0.000000
     34      -0.000000  -0.000000  -0.117933   0.134292   0.331245  -0.000000
     35       0.520294  -0.506262   0.000000  -0.000000  -0.000000  -0.005398
     36       0.000000   0.000000   0.175817  -0.111671   0.005640  -0.000000
     37      -0.000000  -0.000000  -0.664984   0.438222  -0.036633   0.000000
     38       0.008540  -0.024169   0.000000  -0.000000  -0.000000  -0.319390
     39       0.003595  -0.007396   0.213568  -0.152225   0.006534  -0.125733
     40      -0.005949   0.031616   0.369155  -0.266259  -0.024419   0.600143
     41       0.003210  -0.010847   0.059884  -0.038456   0.003253  -0.167966
     42      -0.003595   0.007396   0.213568  -0.152225   0.006534   0.125733
     43       0.005949  -0.031616   0.369155  -0.266259  -0.024419  -0.600143
     44       0.003210  -0.010847  -0.059884   0.038456  -0.003253  -0.167966
                 24         25         26         27         28         29    
      0       0.031231   0.008796  -0.023213   0.003522  -0.039608  -0.078816
      1      -0.099338  -0.000888  -0.047092  -0.059309  -0.026780  -0.184998
      2      -0.000000  -0.000000   0.000000  -0.000000  -0.000000   0.000000
      3       0.038168   0.026162  -0.030271   0.076184  -0.076359  -0.046823
      4       0.052821  -0.032448   0.039745   0.078780   0.092190   0.096054
      5       0.000000   0.000000  -0.000000   0.000000   0.000000   0.000000
      6      -0.069652  -0.063225  -0.001286  -0.006322   0.040795   0.189603
      7      -0.000988  -0.004002   0.007859  -0.014350   0.002460   0.012580
      8       0.000000  -0.000000  -0.000000   0.000000   0.000000  -0.000000
      9       0.052817   0.018130   0.024601  -0.074822  -0.072960  -0.041146
     10      -0.050488   0.036357   0.045506   0.081521  -0.095829  -0.097912
     11       0.000000   0.000000   0.000000   0.000000  -0.000000   0.000000
     12       0.014786   0.007706   0.029796   0.014698  -0.037892  -0.097912
     13       0.099221   0.002012  -0.048132  -0.067252   0.013686   0.166850
     14      -0.000000   0.000000   0.000000  -0.000000  -0.000000  -0.000000
     15      -0.028073   0.003863   0.000680   0.003730   0.217164   0.071712
     16       0.003273  -0.005204  -0.000338  -0.337763   0.003433  -0.006039
     17       0.000000   0.000000  -0.000000   0.000000   0.000000  -0.000000
     18      -0.204059   0.081017   0.271783  -0.265994  -0.284840   0.300987
     19       0.448336  -0.111659  -0.424108   0.339910   0.392387  -0.452680
     20       0.000000   0.000000  -0.000000   0.000000  -0.000000  -0.000000
     21       0.057325   0.003318  -0.000364  -0.004104  -0.061032   0.001613
     22       0.003921   0.002265   0.002237   0.134581  -0.001782   0.011885
     23      -0.000000  -0.000000   0.000000  -0.000000  -0.000000   0.000000
     24      -0.153953   0.080164  -0.215115   0.219373  -0.216646   0.258175
     25      -0.490283   0.144281  -0.440458   0.346914  -0.387072   0.501957
     26       0.000000   0.000000  -0.000000   0.000000   0.000000  -0.000000
     27      -0.084165   0.270795  -0.268710  -0.094645   0.211930  -0.105374
     28       0.249488  -0.402970   0.402426   0.355155  -0.350678   0.188384
     29      -0.000000   0.000000  -0.000000  -0.000000  -0.000000  -0.000000
     30      -0.489305  -0.693342  -0.004055   0.020346   0.165921  -0.400917
     31      -0.026245  -0.041792   0.007682  -0.005330   0.010329  -0.022553
     32      -0.000000  -0.000000  -0.000000   0.000000  -0.000000   0.000000
     33      -0.040160   0.213567   0.229268   0.019458   0.172001  -0.075321
     34      -0.250245   0.426486   0.455869   0.289354   0.402498  -0.168794
     35      -0.000000  -0.000000  -0.000000  -0.000000   0.000000  -0.000000
     36      -0.039007  -0.004759   0.002238  -0.082215   0.011553   0.019690
     37       0.200425   0.018802  -0.004464   0.327312  -0.127869  -0.029818
     38       0.000000  -0.000000  -0.000000   0.000000   0.000000  -0.000000
     39      -0.070218  -0.002018  -0.007368   0.015064   0.148133   0.011919
     40      -0.115916  -0.005211   0.002806   0.268348   0.105406   0.001165
     41      -0.029427  -0.000562  -0.003885  -0.033398   0.080984   0.012600
     42      -0.070218  -0.002018  -0.007368   0.015064   0.148133   0.011919
     43      -0.115916  -0.005211   0.002806   0.268348   0.105406   0.001165
     44       0.029427   0.000562   0.003885   0.033398  -0.080984  -0.012600
                 30         31         32         33         34         35    
      0       0.005737  -0.040070   0.000000   0.030860  -0.096613  -0.184446
      1       0.004274   0.056355   0.000000  -0.046701  -0.075560  -0.129476
      2      -0.000000  -0.000000  -0.002982  -0.000000  -0.000000  -0.000000
      3      -0.010624   0.011532  -0.000000   0.010017   0.121644   0.203347
      4      -0.000552  -0.099314  -0.000000   0.067259  -0.112512  -0.039178
      5       0.000000   0.000000  -0.000341   0.000000   0.000000   0.000000
      6       0.004515   0.064588   0.000000  -0.088722  -0.015058  -0.363098
      7       0.000550   0.004620  -0.000000  -0.006686   0.111531  -0.034243
      8       0.000000  -0.000000   0.000151  -0.000000  -0.000000  -0.000000
      9       0.004431   0.003069   0.000000   0.028322  -0.100673   0.206381
     10      -0.012232   0.095059   0.000000  -0.066387  -0.129581   0.112400
     11      -0.000000   0.000000   0.000160   0.000000  -0.000000   0.000000
     12      -0.007298  -0.038096  -0.000000   0.010767   0.107581  -0.181904
     13       0.011267  -0.053562  -0.000000   0.065233  -0.058301   0.058074
     14       0.000000   0.000000  -0.000199  -0.000000  -0.000000   0.000000
     15      -0.000264   0.086058   0.000000  -0.093619  -0.017437   0.300610
     16       0.031662   0.012912  -0.000000  -0.005070   0.159113   0.032899
     17       0.000000  -0.000000   0.017061   0.000000   0.000000   0.000000
     18       0.027986  -0.099117  -0.000000   0.143891  -0.163594   0.010857
     19      -0.047010   0.019499   0.000000  -0.128385   0.393321  -0.258743
     20      -0.000000  -0.000000  -0.006676  -0.000000   0.000000  -0.000000
     21       0.027270  -0.061271  -0.000000  -0.020694   0.001639  -0.023230
     22      -0.148840  -0.031586   0.000000  -0.022253  -0.043226  -0.001220
     23       0.000000  -0.000000   0.054648   0.000000   0.000000   0.000000
     24      -0.008953  -0.113120  -0.000000   0.099699   0.134616   0.020406
     25      -0.030913  -0.071519  -0.000000   0.070112   0.431532   0.309993
     26       0.000000   0.000000   0.004740   0.000000  -0.000000  -0.000000
     27       0.014459  -0.198208   0.000000   0.148494  -0.218963   0.055962
     28      -0.039179   0.201603  -0.000000  -0.125135   0.424961   0.221438
     29      -0.000000  -0.000000   0.004568  -0.000000  -0.000000   0.000000
     30       0.005058  -0.387526  -0.000000   0.341078   0.012153   0.462241
     31      -0.000386  -0.022996  -0.000000   0.018169   0.136371   0.014151
     32      -0.000000   0.000000  -0.002626   0.000000  -0.000000  -0.000000
     33       0.002171  -0.169854  -0.000000   0.127033   0.179983   0.041986
     34      -0.017939  -0.230184  -0.000000   0.105556   0.452816  -0.257030
     35       0.000000  -0.000000   0.001797  -0.000000   0.000000   0.000000
     36      -0.240752  -0.185855  -0.000000  -0.214357  -0.017591   0.077875
     37       0.433416   0.277630   0.000000   0.417358  -0.000958  -0.209919
     38      -0.000000   0.000000  -0.720026  -0.000000  -0.000000  -0.000000
     39      -0.041590   0.423075  -0.350990   0.410304   0.030246  -0.082408
     40       0.529427   0.005416  -0.336891  -0.091827  -0.034064   0.094492
     41      -0.282475   0.269341  -0.048987   0.280745   0.015153  -0.072908
     42      -0.041590   0.423075   0.350990   0.410304   0.030246  -0.082408
     43       0.529427   0.005416   0.336891  -0.091827  -0.034064   0.094492
     44       0.282475  -0.269341  -0.048987  -0.280745  -0.015153   0.072908
                 36         37         38         39         40         41    
      0      -0.055076  -0.000463   0.000000  -0.001377   0.046256  -0.043617
      1      -0.295404   0.001120  -0.000000   0.000906  -0.021163   0.021098
      2      -0.000000  -0.000000  -0.000450  -0.000000  -0.000000   0.000000
      3      -0.106749  -0.000086   0.000000   0.000455  -0.033117   0.016435
      4       0.274095  -0.000496   0.000000  -0.000269  -0.020680   0.009099
      5      -0.000000  -0.000000  -0.000112   0.000000  -0.000000   0.000000
      6       0.035878  -0.000181   0.000000  -0.000230  -0.001807  -0.001489
      7      -0.137462  -0.000105   0.000000  -0.000024   0.030782   0.009380
      8       0.000000   0.000000   0.000055   0.000000  -0.000000   0.000000
      9       0.042569   0.000333  -0.000000   0.000303   0.029355   0.033596
     10       0.269428  -0.000106   0.000000   0.000083  -0.014351  -0.015446
     11      -0.000000   0.000000   0.000070  -0.000000   0.000000   0.000000
     12       0.122806   0.000500   0.000000  -0.002458  -0.025657  -0.046981
     13      -0.297771   0.000840   0.000000  -0.001676  -0.014881  -0.029246
     14       0.000000  -0.000000   0.000270  -0.000000  -0.000000  -0.000000
     15      -0.045589  -0.000268   0.000000   0.001408  -0.000359   0.002218
     16       0.234281   0.000729   0.000000  -0.000849  -0.002622  -0.000160
     17       0.000000   0.000000   0.000568  -0.000000  -0.000000   0.000000
     18      -0.264506  -0.009039  -0.000000   0.023677   0.294776   0.544429
     19       0.302948  -0.007343  -0.000000   0.018353   0.187680   0.348698
     20      -0.000000   0.000000   0.000187  -0.000000  -0.000000   0.000000
     21       0.003990   0.008125   0.000000   0.091879   0.000102  -0.002852
     22      -0.039569  -0.048702  -0.000000   0.011020  -0.000486  -0.000386
     23       0.000000  -0.000000   0.092876  -0.000000   0.000000   0.000000
     24       0.241652   0.010534  -0.000000   0.014009  -0.536189   0.505650
     25       0.303056  -0.006321   0.000000  -0.008816   0.259393  -0.246008
     26      -0.000000   0.000000   0.001903  -0.000000   0.000000  -0.000000
     27       0.242317   0.000965  -0.000000  -0.003786   0.394181  -0.188557
     28      -0.242665   0.000003  -0.000000  -0.002272   0.257733  -0.121917
     29       0.000000  -0.000000   0.000059  -0.000000   0.000000   0.000000
     30      -0.023686  -0.000141  -0.000000  -0.000379   0.022548   0.007518
     31      -0.156893   0.001751   0.000000   0.000756  -0.373795  -0.113282
     32      -0.000000  -0.000000   0.000483   0.000000  -0.000000  -0.000000
     33      -0.218920  -0.001467   0.000000  -0.004609  -0.351214  -0.395003
     34      -0.231048   0.000231  -0.000000   0.002366   0.174799   0.195505
     35       0.000000   0.000000   0.000183   0.000000   0.000000  -0.000000
     36      -0.027660   0.489856  -0.000000  -0.759993   0.004993   0.024020
     37       0.026501   0.219986  -0.000000  -0.357793   0.004602   0.012450
     38      -0.000000  -0.000000   0.019086  -0.000000   0.000000   0.000000
     39       0.038333  -0.292778   0.355753  -0.170553  -0.002550   0.005304
     40      -0.046214   0.174201  -0.218673   0.118942   0.003362  -0.003995
     41       0.027835   0.488254  -0.566679   0.314744   0.005368  -0.009844
     42       0.038333  -0.292778  -0.355753  -0.170553  -0.002550   0.005304
     43      -0.046214   0.174201   0.218673   0.118942   0.003362  -0.003995
     44      -0.027835  -0.488254  -0.566679  -0.314744  -0.005368   0.009844
                  42         43         44    
      0      -0.034352   0.023821  -0.016101
      1       0.016567  -0.013912   0.009813
      2      -0.000000  -0.000000   0.000000
      3      -0.017316   0.044892  -0.040364
      4      -0.014794   0.030979  -0.024616
      5      -0.000000  -0.000000   0.000000
      6      -0.003245  -0.003901   0.003594
      7       0.056517  -0.001215  -0.057709
      8       0.000000  -0.000000  -0.000000
      9       0.012255   0.048438   0.039890
     10      -0.009445  -0.025693  -0.018117
     11      -0.000000  -0.000000   0.000000
     12       0.038679   0.026902   0.015542
     13       0.024287   0.019589   0.011879
     14       0.000000   0.000000  -0.000000
     15      -0.000300  -0.002434  -0.000090
     16       0.002672   0.000074   0.001351
     17       0.000000  -0.000000   0.000000
     18      -0.437425  -0.308333  -0.176229
     19      -0.280363  -0.201005  -0.116101
     20       0.000000  -0.000000   0.000000
     21       0.000746   0.001093   0.000128
     22       0.000587   0.000188   0.000383
     23       0.000000  -0.000000   0.000000
     24       0.388102  -0.271115   0.180654
     25      -0.188544   0.134873  -0.090748
     26       0.000000   0.000000  -0.000000
     27       0.218618  -0.515074   0.435369
     28       0.148134  -0.340942   0.283891
     29       0.000000   0.000000   0.000000
     30       0.039400   0.004457  -0.038401
     31      -0.658353   0.011585   0.635675
     32      -0.000000   0.000000   0.000000
     33      -0.156834  -0.552862  -0.430488
     34       0.082624   0.278388   0.212760
     35      -0.000000  -0.000000   0.000000
     36      -0.011504  -0.008320  -0.005181
     37      -0.008268  -0.004015  -0.003731
     38      -0.000000  -0.000000   0.000000
     39       0.000863  -0.001389   0.001646
     40      -0.002745   0.000923  -0.002026
     41      -0.002479   0.002891  -0.002847
     42       0.000863  -0.001389   0.001646
     43      -0.002745   0.000923  -0.002026
     44       0.002479  -0.002891   0.002847


-----------
IR SPECTRUM
-----------

 Mode    freq (cm**-1)   T**2         TX         TY         TZ
-------------------------------------------------------------------
   6:        42.18    0.430339  (  0.000000  -0.000000   0.656003)
   7:       207.97    1.282841  (  0.000000   0.000000  -1.132626)
   8:       337.79    0.366850  ( -0.582944   0.164398   0.000000)
   9:       415.84    0.004260  (  0.000000  -0.000000   0.065271)
  10:       476.15    4.753147  (  0.000000   0.000000   2.180171)
  11:       530.72    0.497609  (  0.043004   0.704102  -0.000000)
  12:       636.05    0.096320  (  0.308553   0.033394  -0.000000)
  13:       710.36   10.617243  ( -0.000000  -0.000000   3.258411)
  14:       744.87   36.999203  (  0.000000   0.000000   6.082697)
  15:       808.90    0.302536  ( -0.155501   0.527594  -0.000000)
  16:       857.46    0.002819  ( -0.000000   0.000000   0.053092)
  17:       908.26    0.330833  ( -0.000000  -0.000000   0.575181)
  18:       966.57    0.002256  (  0.000000  -0.000000  -0.047501)
  19:       994.05    0.045100  ( -0.000000  -0.000000   0.212367)
  20:      1005.25    1.498023  (  0.159953  -1.213441  -0.000000)
  21:      1018.63    0.605443  ( -0.020043   0.777844   0.000000)
  22:      1058.19    1.930988  ( -0.084493   1.387029  -0.000000)
  23:      1073.05    3.718269  (  0.000000  -0.000000  -1.928281)
  24:      1117.40    4.804569  ( -2.171117   0.301364   0.000000)
  25:      1188.49    0.068575  (  0.249236   0.080349  -0.000000)
  26:      1205.58    0.255186  ( -0.013986   0.504965  -0.000000)
  27:      1252.43    0.751365  (  0.229161  -0.835973   0.000000)
  28:      1347.01    0.550671  ( -0.226542  -0.706647   0.000000)
  29:      1361.69    0.036354  ( -0.096815  -0.164259  -0.000000)
  30:      1420.06    0.140889  ( -0.280017   0.249959  -0.000000)
  31:      1478.73    0.016725  (  0.129164  -0.006469   0.000000)
  32:      1502.31    4.528687  ( -0.000000   0.000000  -2.128071)
  33:      1512.32   10.550960  (  3.202073   0.545609   0.000000)
  34:      1544.54   12.535529  ( -0.142905   3.537670  -0.000000)
  35:      1648.74    0.483722  (  0.695501   0.000106   0.000000)
  36:      1664.78    7.005980  ( -0.196652   2.639566   0.000000)
  37:      3040.74   28.764585  (  0.393140  -5.348834  -0.000000)
  38:      3114.08   19.917844  (  0.000000   0.000000   4.462941)
  39:      3115.42   17.078407  (  4.061902   0.761156  -0.000000)
  40:      3169.36    7.029919  (  0.738714  -2.546413  -0.000000)
  41:      3172.35    3.391215  ( -1.788593  -0.438349  -0.000000)
  42:      3182.53   13.829113  ( -0.211497   3.712732   0.000000)
  43:      3191.38   45.624404  (  6.732904   0.540753   0.000000)
  44:      3202.63   16.322186  (  0.134681  -4.037827   0.000000)

The first frequency considered to be a vibration is 6
The total number of vibrations considered is 39


--------------------------
THERMOCHEMISTRY AT 298.15K
--------------------------

Temperature         ... 298.15 K
Pressure            ... 1.00 atm
Total Mass          ... 92.14 AMU

Throughout the following assumptions are being made:
  (1) The electronic state is orbitally nondegenerate
  (2) There are no thermally accessible electronically excited states
  (3) Hindered rotations indicated by low frequency modes are not
      treated as such but are treated as vibrations and this may
      cause some error
  (4) All equations used are the standard statistical mechanics
      equations for an ideal gas
  (5) All vibrations are strictly harmonic

freq.      42.18  E(vib)   ...       0.53 
freq.     207.97  E(vib)   ...       0.34 
freq.     337.79  E(vib)   ...       0.24 
freq.     415.84  E(vib)   ...       0.18 
freq.     476.15  E(vib)   ...       0.15 
freq.     530.72  E(vib)   ...       0.13 
freq.     636.05  E(vib)   ...       0.09 
freq.     710.36  E(vib)   ...       0.07 
freq.     744.87  E(vib)   ...       0.06 
freq.     808.90  E(vib)   ...       0.05 
freq.     857.46  E(vib)   ...       0.04 
freq.     908.26  E(vib)   ...       0.03 
freq.     966.57  E(vib)   ...       0.03 
freq.     994.05  E(vib)   ...       0.02 
freq.    1005.25  E(vib)   ...       0.02 
freq.    1018.63  E(vib)   ...       0.02 
freq.    1058.19  E(vib)   ...       0.02 
freq.    1073.05  E(vib)   ...       0.02 
freq.    1117.40  E(vib)   ...       0.01 
freq.    1188.49  E(vib)   ...       0.01 
freq.    1205.58  E(vib)   ...       0.01 
freq.    1252.43  E(vib)   ...       0.01 
freq.    1347.01  E(vib)   ...       0.01 
freq.    1361.69  E(vib)   ...       0.01 
freq.    1420.06  E(vib)   ...       0.00 
freq.    1478.73  E(vib)   ...       0.00 
freq.    1502.31  E(vib)   ...       0.00 
freq.    1512.32  E(vib)   ...       0.00 
freq.    1544.54  E(vib)   ...       0.00 
freq.    1648.74  E(vib)   ...       0.00 
freq.    1664.78  E(vib)   ...       0.00 
freq.    3040.74  E(vib)   ...       0.00 
freq.    3114.08  E(vib)   ...       0.00 
freq.    3115.42  E(vib)   ...       0.00 
freq.    3169.36  E(vib)   ...       0.00 
freq.    3172.35  E(vib)   ...       0.00 
freq.    3182.53  E(vib)   ...       0.00 
freq.    3191.38  E(vib)   ...       0.00 
freq.    3202.63  E(vib)   ...       0.00 

------------
INNER ENERGY
------------

The inner energy is: U= E(el) + E(ZPE) + E(vib) + E(rot) + E(trans)
    E(el)   - is the total energy from the electronic structure calculation
              = E(kin-el) + E(nuc-el) + E(el-el) + E(nuc-nuc)
    E(ZPE)  - the the zero temperature vibrational energy from the frequency calculation
    E(vib)  - the the finite temperature correction to E(ZPE) due to population
              of excited vibrational states
    E(rot)  - is the rotational thermal energy
    E(trans)- is the translational thermal energy

Summary of contributions to the inner energy U:
Electronic energy                ...   -271.38887301 Eh
Zero point energy                ...      0.12808966 Eh      80.38 kcal/mol
Thermal vibrational correction   ...      0.00337781 Eh       2.12 kcal/mol
Thermal rotational correction    ...      0.00141627 Eh       0.89 kcal/mol
Thermal translational correction ...      0.00141627 Eh       0.89 kcal/mol
-----------------------------------------------------------------------
Total thermal energy                   -271.25457300 Eh


Summary of corrections to the electronic energy:
(perhaps to be used in another calculation)
Total thermal correction                  0.00621035 Eh       3.90 kcal/mol
Non-thermal (ZPE) correction              0.12808966 Eh      80.38 kcal/mol
-----------------------------------------------------------------------
Total correction                          0.13430001 Eh      84.27 kcal/mol


--------
ENTHALPY
--------

The enthalpy is H = U + kB*T
                kB is Boltzmann's constant
Total free energy                 ...   -271.25457300 Eh 
Thermal Enthalpy correction       ...      0.00094421 Eh       0.59 kcal/mol
-----------------------------------------------------------------------
Total Enthalpy                    ...   -271.25362879 Eh


Vibrational entropy computed according to the QRRHO of S. Grimme
Chem.Eur.J. 2012 18 9955


-------
ENTROPY
-------

The entropy contributions are T*S = T*(S(el)+S(vib)+S(rot)+S(trans)
     S(el)   - electronic entropy
     S(vib)  - vibrational entropy
     S(rot)  - rotational entropy
     S(trans)- translational entropy
The entropies will be listed as mutliplied by the temperature to get
units of energy

Electronic entropy                ...      0.00000000 Eh      0.00 kcal/mol
Vibrational entropy               ...      0.00547656 Eh      3.44 kcal/mol
Rotational entropy                ...      0.01177949 Eh      7.39 kcal/mol
Translational entropy             ...      0.01875532 Eh     11.77 kcal/mol
-----------------------------------------------------------------------
Final entropy term                ...      0.03601136 Eh     22.60 kcal/mol


CAUTION: The rotational entropy is not quite correctly treated here
         because it includes a symmetry number that is not yet correctly
         implemented in ORCA!
For a nonlinear molecule the correct rotational entropy is:
    S(rot) = R*(ln(qrot/sn)+1.5)
    R    = 8.31441 J/mol/K = 1.987191683e-3 kcal/mol/K
    qrot = 175341.2112217
    sn is the rotational symmetry number. We have assumed 3 here
       if it is different for your molecule then you should correct
       the printed rotational entropy by manually evaluating the equation
       as given above

For convenience we print out the resulting values for sn=1 - 12:
 sn= 1  qrot/sn=  175341.2112 T*S(rot)=     8.04 kcal/mol T*S(tot)=    23.25 kcal/mol
 sn= 2  qrot/sn=   87670.6056 T*S(rot)=     7.63 kcal/mol T*S(tot)=    22.84 kcal/mol
 sn= 3  qrot/sn=   58447.0704 T*S(rot)=     7.39 kcal/mol T*S(tot)=    22.60 kcal/mol
 sn= 4  qrot/sn=   43835.3028 T*S(rot)=     7.22 kcal/mol T*S(tot)=    22.43 kcal/mol
 sn= 5  qrot/sn=   35068.2422 T*S(rot)=     7.09 kcal/mol T*S(tot)=    22.29 kcal/mol
 sn= 6  qrot/sn=   29223.5352 T*S(rot)=     6.98 kcal/mol T*S(tot)=    22.19 kcal/mol
 sn= 7  qrot/sn=   25048.7445 T*S(rot)=     6.89 kcal/mol T*S(tot)=    22.10 kcal/mol
 sn= 8  qrot/sn=   21917.6514 T*S(rot)=     6.81 kcal/mol T*S(tot)=    22.02 kcal/mol
 sn= 9  qrot/sn=   19482.3568 T*S(rot)=     6.74 kcal/mol T*S(tot)=    21.95 kcal/mol
 sn=10  qrot/sn=   17534.1211 T*S(rot)=     6.68 kcal/mol T*S(tot)=    21.88 kcal/mol
 sn=11  qrot/sn=   15940.1101 T*S(rot)=     6.62 kcal/mol T*S(tot)=    21.83 kcal/mol
 sn=12  qrot/sn=   14611.7676 T*S(rot)=     6.57 kcal/mol T*S(tot)=    21.78 kcal/mol


-------------------
GIBBS FREE ENTHALPY
-------------------

The Gibbs free enthalpy is G = H - T*S

Total enthalpy                    ...   -271.25362879 Eh 
Total entropy correction          ...     -0.03601136 Eh    -22.60 kcal/mol
-----------------------------------------------------------------------
Final Gibbs free enthalpy         ...   -271.28964015 Eh

For completeness - the Gibbs free enthalpy minus the electronic energy
G-E(el)                           ...      0.09923286 Eh     62.27 kcal/mol


Timings for individual modules:

Sum of individual times         ...     1708.441 sec (=  28.474 min)
GTO integral calculation        ...        0.579 sec (=   0.010 min)   0.0 %
SCF iterations                  ...       78.132 sec (=   1.302 min)   4.6 %
Analytical frequency calculation...     1629.729 sec (=  27.162 min)  95.4 %
                             ****ORCA TERMINATED NORMALLY****
TOTAL RUN TIME: 0 days 0 hours 28 minutes 29 seconds 13 msec
