
                                 *****************
                                 * O   R   C   A *
                                 *****************

           --- An Ab Initio, DFT and Semiempirical electronic structure package ---

                  #######################################################
                  #                        -***-                        #
                  #  Department of molecular theory and spectroscopy    #
                  #              Directorship: Frank Neese              #
                  # Max Planck Institute for Chemical Energy Conversion #
                  #                  D-45470 Muelheim/Ruhr              #
                  #                       Germany                       #
                  #                                                     #
                  #                  All rights reserved                #
                  #                        -***-                        #
                  #######################################################


                         Program Version 4.0.1 -  RELEASE  -


 With contributions from (in alphabetic order):
   Daniel Aravena         : Magnetic Properties
   Michael Atanasov       : Ab Initio Ligand Field Theory
   Ute Becker             : Parallelization
   Martin Brehm           : Molecular dynamics
   Dmytro Bykov           : SCF Hessian
   Vijay G. Chilkuri      : MRCI spin determinant printing
   Dipayan Datta          : RHF DLPNO-CCSD density
   Achintya Kumar Dutta   : EOM-CC, STEOM-CC
   Dmitry Ganyushin       : Spin-Orbit,Spin-Spin,Magnetic field MRCI
   Yang Guo               : DLPNO-NEVPT2, CIM, IAO-localization
   Andreas Hansen         : Spin unrestricted coupled pair/coupled cluster methods
   Lee Huntington         : MR-EOM, pCC
   Robert Izsak           : Overlap fitted RIJCOSX, COSX-SCS-MP3, EOM
   Christian Kollmar      : KDIIS, OOCD, Brueckner-CCSD(T), CCSD density
   Simone Kossmann        : Meta GGA functionals, TD-DFT gradient, OOMP2, MP2 Hessian
   Martin Krupicka        : AUTO-CI
   Dagmar Lenk            : GEPOL surface
   Dimitrios Liakos       : Extrapolation schemes; parallel MDCI
   Dimitrios Manganas     : ROCIS; embedding schemes
   Dimitrios Pantazis     : SARC Basis sets
   Taras Petrenko         : DFT Hessian,TD-DFT gradient, ASA, ECA, R-Raman, ABS, FL, XAS/XES, NRVS
   Peter Pinski           : DLPNO-MP2
   Christoph Reimann      : Effective Core Potentials
   Marius Retegan         : Local ZFS, SOC
   Christoph Riplinger    : Optimizer, TS searches, QM/MM, DLPNO-CCSD(T), (RO)-DLPNO pert. Triples
   Tobias Risthaus        : Range-separated hybrids, TD-DFT gradient, RPA, STAB
   Michael Roemelt        : Restricted open shell CIS
   Masaaki Saitow         : Open-shell DLPNO
   Barbara Sandhoefer     : DKH picture change effects
   Kantharuban Sivalingam : CASSCF convergence, NEVPT2, FIC-MRCI
   Georgi Stoychev        : AutoAux
   Boris Wezisla          : Elementary symmetry handling
   Frank Wennmohs         : Technical directorship


 We gratefully acknowledge several colleagues who have allowed us to
 interface, adapt or use parts of their codes:
   Stefan Grimme, W. Hujo, H. Kruse,             : VdW corrections, initial TS optimization,
                  C. Bannwarth                     DFT functionals, gCP, sTDA/sTD-DF
   Ed Valeev                                     : LibInt (2-el integral package), F12 methods
   Garnet Chan, S. Sharma, J. Yang, R. Olivares  : DMRG
   Ulf Ekstrom                                   : XCFun DFT Library
   Mihaly Kallay                                 : mrcc  (arbitrary order and MRCC methods)
   Andreas Klamt, Michael Diedenhofen            : otool_cosmo (COSMO solvation model)
   Jiri Pittner, Ondrej Demel                    : Mk-CCSD
   Frank Weinhold                                : gennbo (NPA and NBO analysis)
   Christopher J. Cramer and Donald G. Truhlar   : smd solvation model


 Your calculation uses the libint2 library for the computation of 2-el integrals
 For citations please refer to: http://libint.valeyev.net

 This ORCA versions uses:
   CBLAS   interface :  Fast vector & matrix operations
   LAPACKE interface :  Fast linear algebra routines
   SCALAPACK package :  Parallel linear algebra routines




*****************************************
The coordinations will be read from file: etanol.xyz
*****************************************


Your calculation utilizes the basis: 6-31G(d,p)
   H-He, Li-Ne : W. J. Hehre, R. Ditchfield and J.A. Pople, J. Chem. Phys. 56, 2257 (1972).
                 Note: He and Ne are unpublished basis sets taken from the Gaussian program.
                 Note: Li and B from J. D. Dill and J. A. Pople, J. Chem. Phys. 62, 2921 (1975).
   Na - Ar     : M. M. Francl, W. J. Pietro, W. J. Hehre, J. S. Binkley, M. S. Gordon, 
                 D. J. DeFrees and J. A. Pople, J. Chem. Phys. 77, 3654 (1982).
   K - Zn      : V. A. Rassolov, J. A. Pople, M. A. Ratner, and T. L. Windus, J. Chem. Phys. 109, 1223 (1998).

================================================================================
                                        WARNINGS
                       Please study these warnings very carefully!
================================================================================

WARNING: Gradients needed for Numerical Frequencies
  ===> : Setting RunTyp to EnGrad
Warning: TCutStore was < 0. Adjusted to Thresh (uncritical)

WARNING: Evaluation of Numerical Hessian with CPCM may lead to unreliable numbers

INFO   : the flag for use of LIBINT has been found!

================================================================================
                                       INPUT FILE
================================================================================
NAME = etanol.inp
|  1> ! B3LYP 6-31G(d,p) CPCM(water) NumFreq
|  2> 
|  3> * xyzfile 0 1 etanol.xyz
|  4> 
|  5>                          ****END OF INPUT****
================================================================================

                     *******************************
                     * Energy+Gradient Calculation *
                     *******************************

---------------------------------
CARTESIAN COORDINATES (ANGSTROEM)
---------------------------------
  C     -4.700090   -0.410710    0.015500
  C     -3.793590    0.799580   -0.053880
  H     -5.689480   -0.136500    0.392070
  H     -4.272070   -1.176320    0.671050
  H     -4.812210   -0.866070   -0.974040
  O     -2.523780    0.398750   -0.546410
  H     -3.663510    1.239310    0.939490
  H     -4.210930    1.553750   -0.727750
  H     -1.966270    1.194760   -0.579340

----------------------------
CARTESIAN COORDINATES (A.U.)
----------------------------
  NO LB      ZA    FRAG     MASS         X           Y           Z
   0 C     6.0000    0    12.011   -8.881883   -0.776129    0.029291
   1 C     6.0000    0    12.011   -7.168846    1.510987   -0.101818
   2 H     1.0000    0     1.008  -10.751559   -0.257948    0.740905
   3 H     1.0000    0     1.008   -8.073042   -2.222923    1.268101
   4 H     1.0000    0     1.008   -9.093759   -1.636635   -1.840669
   5 O     8.0000    0    15.999   -4.769253    0.753528   -1.032565
   6 H     1.0000    0     1.008   -6.923031    2.341956    1.775379
   7 H     1.0000    0     1.008   -7.957504    2.936162   -1.375248
   8 H     1.0000    0     1.008   -3.715712    2.257769   -1.094794

--------------------------------
INTERNAL COORDINATES (ANGSTROEM)
--------------------------------
 C      0   0   0     0.000000000000     0.00000000     0.00000000
 C      1   0   0     1.513723131388     0.00000000     0.00000000
 H      1   2   0     1.093566944041   110.92244993     0.00000000
 H      1   2   3     1.095036800751   110.63270179   239.12098640
 H      1   2   3     1.095040198166   110.63293378   120.87965227
 O      2   1   3     1.419742204029   109.01287329   180.00028381
 H      2   1   3     1.094105678717   110.54411678    60.46444696
 H      2   1   3     1.094095901372   110.54432599   299.53601470
 H      6   2   1     0.972385574297   107.06320761   179.99974418

---------------------------
INTERNAL COORDINATES (A.U.)
---------------------------
 C      0   0   0     0.000000000000     0.00000000     0.00000000
 C      1   0   0     2.860522160906     0.00000000     0.00000000
 H      1   2   0     2.066542033347   110.92244993     0.00000000
 H      1   2   3     2.069319659986   110.63270179   239.12098640
 H      1   2   3     2.069326080169   110.63293378   120.87965227
 O      2   1   3     2.682923946384   109.01287329   180.00028381
 H      2   1   3     2.067560094342   110.54411678    60.46444696
 H      2   1   3     2.067541617840   110.54432599   299.53601470
 H      6   2   1     1.837542431996   107.06320761   179.99974418

---------------------
BASIS SET INFORMATION
---------------------
There are 3 groups of distinct atoms

 Group   1 Type C   : 10s4p1d contracted to 3s2p1d pattern {631/31/1}
 Group   2 Type H   : 4s1p contracted to 2s1p pattern {31/1}
 Group   3 Type O   : 10s4p1d contracted to 3s2p1d pattern {631/31/1}

Atom   0C    basis set group =>   1
Atom   1C    basis set group =>   1
Atom   2H    basis set group =>   2
Atom   3H    basis set group =>   2
Atom   4H    basis set group =>   2
Atom   5O    basis set group =>   3
Atom   6H    basis set group =>   2
Atom   7H    basis set group =>   2
Atom   8H    basis set group =>   2
------------------------------------------------------------------------------
                           ORCA GTO INTEGRAL CALCULATION
------------------------------------------------------------------------------

                         BASIS SET STATISTICS AND STARTUP INFO

 # of primitive gaussian shells          ...   75
 # of primitive gaussian functions       ...  123
 # of contracted shells                  ...   36
 # of contracted basis functions         ...   72
 Highest angular momentum                ...    2
 Maximum contraction depth               ...    6
 Integral package used                   ... LIBINT
 Integral threshhold            Thresh   ...  2.500e-11
 Primitive cut-off              TCut     ...  2.500e-12


------------------------------ INTEGRAL EVALUATION ----------------------------


 * One electron integrals 
 Pre-screening matrix                    ... done
 Shell pair data                         ... done (   0.001 sec)

-------------------------------------------------------------------------------
                                 ORCA SCF
-------------------------------------------------------------------------------

------------
SCF SETTINGS
------------
Hamiltonian:
 Density Functional     Method          .... DFT(GTOs)
 Exchange Functional    Exchange        .... B88
   X-Alpha parameter    XAlpha          ....  0.666667
   Becke's b parameter  XBeta           ....  0.004200
 Correlation Functional Correlation     .... LYP
 LDA part of GGA corr.  LDAOpt          .... VWN-5
 Gradients option       PostSCFGGA      .... off
 Hybrid DFT is turned on
   Fraction HF Exchange ScalHFX         ....  0.200000
   Scaling of DF-GGA-X  ScalDFX         ....  0.720000
   Scaling of DF-GGA-C  ScalDFC         ....  0.810000
   Scaling of DF-LDA-C  ScalLDAC        ....  1.000000
   Perturbative correction              ....  0.000000
   NL short-range parameter             ....  4.800000


General Settings:
 Integral files         IntName         .... etanol
 Hartree-Fock type      HFTyp           .... RHF
 Total Charge           Charge          ....    0
 Multiplicity           Mult            ....    1
 Number of Electrons    NEL             ....   26
 Basis Dimension        Dim             ....   72
 Nuclear Repulsion      ENuc            ....     81.8048996759 Eh

Convergence Acceleration:
 DIIS                   CNVDIIS         .... on
   Start iteration      DIISMaxIt       ....    12
   Startup error        DIISStart       ....  0.200000
   # of expansion vecs  DIISMaxEq       ....     5
   Bias factor          DIISBfac        ....   1.050
   Max. coefficient     DIISMaxC        ....  10.000
 Newton-Raphson         CNVNR           .... off
 SOSCF                  CNVSOSCF        .... on
   Start iteration      SOSCFMaxIt      ....   150
   Startup grad/error   SOSCFStart      ....  0.003300
 Level Shifting         CNVShift        .... on
   Level shift para.    LevelShift      ....    0.2500
   Turn off err/grad.   ShiftErr        ....    0.0010
 Zerner damping         CNVZerner       .... off
 Static damping         CNVDamp         .... on
   Fraction old density DampFac         ....    0.7000
   Max. Damping (<1)    DampMax         ....    0.9800
   Min. Damping (>=0)   DampMin         ....    0.0000
   Turn off err/grad.   DampErr         ....    0.1000
 Fernandez-Rico         CNVRico         .... off

SCF Procedure:
 Maximum # iterations   MaxIter         ....   125
 SCF integral mode      SCFMode         .... Direct
   Integral package                     .... LIBINT
 Reset frequeny         DirectResetFreq ....    20
 Integral Threshold     Thresh          ....  2.500e-11 Eh
 Primitive CutOff       TCut            ....  2.500e-12 Eh

Convergence Tolerance:
 Convergence Check Mode ConvCheckMode   .... Total+1el-Energy
 Convergence forced     ConvForced      .... 0
 Energy Change          TolE            ....  1.000e-08 Eh
 1-El. energy change                    ....  1.000e-05 Eh
 Orbital Gradient       TolG            ....  1.000e-05
 Orbital Rotation angle TolX            ....  1.000e-05
 DIIS Error             TolErr          ....  5.000e-07


Diagonalization of the overlap matrix:
Smallest eigenvalue                        ... 6.835e-03
Time for diagonalization                   ...    0.003 sec
Threshold for overlap eigenvalues          ... 1.000e-08
Number of eigenvalues below threshold      ... 0
Time for construction of square roots      ...    0.001 sec
Total time needed                          ...    0.004 sec

-------------------
DFT GRID GENERATION
-------------------

General Integration Accuracy     IntAcc      ...  4.340
Radial Grid Type                 RadialGrid  ... Gauss-Chebyshev
Angular Grid (max. acc.)         AngularGrid ... Lebedev-110
Angular grid pruning method      GridPruning ... 3 (G Style)
Weight generation scheme         WeightScheme... Becke
Basis function cutoff            BFCut       ...    1.0000e-11
Integration weight cutoff        WCut        ...    1.0000e-14
Grids for H and He will be reduced by one unit

# of grid points (after initial pruning)     ...   9792 (   0.0 sec)
# of grid points (after weights+screening)   ...   9365 (   0.0 sec)
nearest neighbour list constructed           ...    0.0 sec
Grid point re-assignment to atoms done       ...    0.0 sec
Grid point division into batches done        ...    0.0 sec
Reduced shell lists constructed in    0.1 sec

Total number of grid points                  ...     9365
Total number of batches                      ...      152
Average number of points per batch           ...       61
Average number of grid points per atom       ...     1041
Average number of shells per batch           ...    30.22 (83.93%)
Average number of basis functions per batch  ...    60.46 (83.98%)
Average number of large shells per batch     ...    25.78 (85.31%)
Average number of large basis fcns per batch ...    51.15 (84.60%)
Maximum spatial batch extension              ...  22.44, 25.60, 22.34 au
Average spatial batch extension              ...   4.36,  4.31,  4.12 au

Time for grid setup =    0.150 sec

------------------------------
INITIAL GUESS: MODEL POTENTIAL
------------------------------
Loading Hartree-Fock densities                     ... done
Calculating cut-offs                               ... done
Setting up the integral package                    ... done
Initializing the effective Hamiltonian             ... done
Starting the Coulomb interaction                   ... done (   0.0 sec)
Reading the grid                                   ... done
Mapping shells                                     ... done
Starting the XC term evaluation                    ... done (   0.2 sec)
  promolecular density results
     # of electrons  =     25.997688661
     EX              =    -20.253257731
     EC              =     -0.846820745
     EX+EC           =    -21.100078476
Transforming the Hamiltonian                       ... done (   0.0 sec)
Diagonalizing the Hamiltonian                      ... done (   0.0 sec)
Back transforming the eigenvectors                 ... done (   0.0 sec)
Now organizing SCF variables                       ... done
                      ------------------
                      INITIAL GUESS DONE (   0.5 sec)
                      ------------------

------------------------------------------------------------------------------
                           CPCM SOLVATION MODEL                               
------------------------------------------------------------------------------
CPCM parameters:
  Epsilon                                         ...      80.4000
  Refrac                                          ...       1.3300
  Rsolv                                           ...       1.3000
  Surface type                                    ...    GEPOL SES
  Epsilon function type                           ...         CPCM
Radii:
 Radius for C  used is    3.7795 Bohr (=   2.0000 Ang.)
 Radius for H  used is    2.4566 Bohr (=   1.3000 Ang.)
 Radius for O  used is    3.2503 Bohr (=   1.7200 Ang.)
Calculating surface                               ...        done! (  0.0s)
GEPOL surface points                              ...          285
GEPOL Volume                                      ...     463.5033
GEPOL Surface-area                                ...     319.4304
Calculating surface distance matrix               ...        done! (  0.0s)
Performing Cholesky decomposition & store         ...        done! (  0.0s)
Overall time for CPCM initialization              ...                 0.0s
--------------
SCF ITERATIONS
--------------
ITER       Energy         Delta-E        Max-DP      RMS-DP      [F,P]     Damp
               ***  Starting incremental Fock matrix formation  ***
  0   -154.8246682554   0.000000000000 0.07595390  0.00345685  0.2478995 0.7000
  1   -154.8853028195  -0.060634564085 0.04304086  0.00237156  0.1090120 0.7000
                               ***Turning on DIIS***
  2   -154.9092391305  -0.023936311042 0.06435602  0.00381548  0.0365438 0.0000
  3   -154.9453815583  -0.036142427813 0.02886003  0.00153437  0.0563303 0.0000
  4   -154.9540948918  -0.008713333512 0.00772761  0.00043109  0.0113349 0.0000
  5   -154.9544668533  -0.000371961411 0.00320309  0.00016856  0.0060138 0.0000
                      *** Initiating the SOSCF procedure ***
                           *** Shutting down DIIS ***
                      *** Re-Reading the Fockian *** 
                      *** Removing any level shift *** 
ITER      Energy       Delta-E        Grad      Rot      Max-DP    RMS-DP
  6   -154.95451482  -0.0000479640  0.000303  0.000303  0.001211  0.000072
               *** Restarting incremental Fock matrix formation ***
  7   -154.95451694  -0.0000021195  0.000043  0.000064  0.000160  0.000007
  8   -154.95451694   0.0000000001  0.000052  0.000044  0.000086  0.000004
                  ***Gradient check signals convergence***
              ***Rediagonalizing the Fockian in SOSCF/NRSCF***

               *****************************************************
               *                     SUCCESS                       *
               *           SCF CONVERGED AFTER   9 CYCLES          *
               *****************************************************

Setting up the final grid:

General Integration Accuracy     IntAcc      ...  4.670
Radial Grid Type                 RadialGrid  ... Gauss-Chebyshev
Angular Grid (max. acc.)         AngularGrid ... Lebedev-302
Angular grid pruning method      GridPruning ... 3 (G Style)
Weight generation scheme         WeightScheme... Becke
Basis function cutoff            BFCut       ...    1.0000e-11
Integration weight cutoff        WCut        ...    1.0000e-14
Grids for H and He will be reduced by one unit

# of grid points (after initial pruning)     ...  39000 (   0.0 sec)
# of grid points (after weights+screening)   ...  37014 (   0.1 sec)
nearest neighbour list constructed           ...    0.0 sec
Grid point re-assignment to atoms done       ...    0.0 sec
Grid point division into batches done        ...    0.2 sec
Reduced shell lists constructed in    0.6 sec

Total number of grid points                  ...    37014
Total number of batches                      ...      583
Average number of points per batch           ...       63
Average number of grid points per atom       ...     4113
Average number of shells per batch           ...    27.58 (76.61%)
Average number of basis functions per batch  ...    55.04 (76.45%)
Average number of large shells per batch     ...    22.96 (83.26%)
Average number of large basis fcns per batch ...    45.33 (82.35%)
Maximum spatial batch extension              ...  17.76, 17.32, 20.93 au
Average spatial batch extension              ...   2.83,  2.81,  2.84 au

Final grid set up in    0.7 sec
Final integration                            ... done (   0.9 sec)
Change in XC energy                          ...    -0.000283146
Integrated number of electrons               ...    25.999985151
Previous integrated no of electrons          ...    26.000026952

----------------
TOTAL SCF ENERGY
----------------

Total Energy       :         -154.95480012 Eh           -4216.53448 eV

Components:
Nuclear Repulsion  :           81.80489968 Eh            2226.02449 eV
Electronic Energy  :         -236.75969979 Eh           -6442.55896 eV
One Electron Energy:         -372.04848092 Eh          -10123.95386 eV
Two Electron Energy:          135.28878113 Eh            3681.39489 eV
CPCM Dielectric    :           -0.00880543 Eh              -0.23961 eV

Virial components:
Potential Energy   :         -308.96708763 Eh           -8407.42188 eV
Kinetic Energy     :          154.01228752 Eh            4190.88740 eV
Virial Ratio       :            2.00611972


DFT components:
N(Alpha)           :       12.999992575325 electrons
N(Beta)            :       12.999992575325 electrons
N(Total)           :       25.999985150649 electrons
E(X)               :      -16.477756064956 Eh       
E(C)               :       -1.008382052828 Eh       
E(XC)              :      -17.486138117784 Eh       
CPCM Solvation Model Properties:
Surface-charge          :           -0.01646581
Charge-correction       :           -0.00011123 Eh              -0.00303 eV
Free-energy (cav+disp)  :            0.00306933 Eh               0.08352 eV
Corrected G(solv)       :         -154.95184202 Eh           -4216.45398 eV

---------------
SCF CONVERGENCE
---------------

  Last Energy change         ...   -3.3853e-08  Tolerance :   1.0000e-08
  Last MAX-Density change    ...    5.3279e-06  Tolerance :   1.0000e-07
  Last RMS-Density change    ...    2.6282e-07  Tolerance :   5.0000e-09
  Last Orbital Gradient      ...    1.9077e-06  Tolerance :   1.0000e-05
  Last Orbital Rotation      ...    1.9976e-06  Tolerance :   1.0000e-05

             **** THE GBW FILE WAS UPDATED (etanol.gbw) ****
             **** DENSITY FILE WAS UPDATED (etanol.scfp.tmp) ****
             **** ENERGY FILE WAS UPDATED (etanol.en.tmp) ****
----------------
ORBITAL ENERGIES
----------------

  NO   OCC          E(Eh)            E(eV) 
   0   2.0000     -19.127794      -520.4937 
   1   2.0000     -10.213256      -277.9168 
   2   2.0000     -10.161370      -276.5049 
   3   2.0000      -1.004311       -27.3287 
   4   2.0000      -0.737445       -20.0669 
   5   2.0000      -0.598705       -16.2916 
   6   2.0000      -0.500762       -13.6264 
   7   2.0000      -0.455294       -12.3892 
   8   2.0000      -0.393641       -10.7115 
   9   2.0000      -0.373529       -10.1642 
  10   2.0000      -0.355080        -9.6622 
  11   2.0000      -0.320611        -8.7243 
  12   2.0000      -0.257619        -7.0102 
  13   0.0000       0.094643         2.5754 
  14   0.0000       0.130435         3.5493 
  15   0.0000       0.165584         4.5058 
  16   0.0000       0.175663         4.7800 
  17   0.0000       0.184870         5.0306 
  18   0.0000       0.206949         5.6314 
  19   0.0000       0.224665         6.1134 
  20   0.0000       0.248250         6.7552 
  21   0.0000       0.530273        14.4295 
  22   0.0000       0.557231        15.1630 
  23   0.0000       0.563167        15.3246 
  24   0.0000       0.585037        15.9197 
  25   0.0000       0.675347        18.3771 
  26   0.0000       0.680246        18.5104 
  27   0.0000       0.790403        21.5079 
  28   0.0000       0.847971        23.0745 
  29   0.0000       0.869713        23.6661 
  30   0.0000       0.883602        24.0440 
  31   0.0000       0.893793        24.3213 
  32   0.0000       0.926429        25.2094 
  33   0.0000       1.004036        27.3212 
  34   0.0000       1.007773        27.4229 
  35   0.0000       1.023199        27.8427 
  36   0.0000       1.149081        31.2681 
  37   0.0000       1.338246        36.4155 
  38   0.0000       1.375938        37.4412 
  39   0.0000       1.402349        38.1599 
  40   0.0000       1.596914        43.4542 
  41   0.0000       1.612183        43.8697 
  42   0.0000       1.681171        45.7470 
  43   0.0000       1.726812        46.9889 
  44   0.0000       1.881233        51.1909 
  45   0.0000       1.957674        53.2710 
  46   0.0000       1.978927        53.8493 
  47   0.0000       2.051040        55.8116 
  48   0.0000       2.051583        55.8264 
  49   0.0000       2.075103        56.4664 
  50   0.0000       2.097374        57.0724 
  51   0.0000       2.126981        57.8781 
  52   0.0000       2.279635        62.0320 
  53   0.0000       2.315462        63.0069 
  54   0.0000       2.365528        64.3693 
  55   0.0000       2.417073        65.7719 
  56   0.0000       2.463319        67.0303 
  57   0.0000       2.602963        70.8302 
  58   0.0000       2.669774        72.6483 
  59   0.0000       2.706203        73.6395 
  60   0.0000       2.740486        74.5724 
  61   0.0000       2.763122        75.1884 
  62   0.0000       2.815717        76.6196 
  63   0.0000       2.905088        79.0515 
  64   0.0000       2.906451        79.0886 
  65   0.0000       2.985438        81.2379 
  66   0.0000       3.192872        86.8825 
  67   0.0000       3.311969        90.1233 
  68   0.0000       3.393828        92.3508 
  69   0.0000       3.448744        93.8451 
  70   0.0000       3.522235        95.8449 
  71   0.0000       3.538452        96.2862 

                    ********************************
                    * MULLIKEN POPULATION ANALYSIS *
                    ********************************

-----------------------
MULLIKEN ATOMIC CHARGES
-----------------------
   0 C :   -0.331878
   1 C :    0.062006
   2 H :    0.114145
   3 H :    0.113384
   4 H :    0.110194
   5 O :   -0.591877
   6 H :    0.091548
   7 H :    0.093450
   8 H :    0.339027
Sum of atomic charges:   -0.0000000

--------------------------------
MULLIKEN REDUCED ORBITAL CHARGES
--------------------------------
  0 C s       :     3.243900  s :     3.243900
      pz      :     1.057723  p :     3.057219
      px      :     1.012998
      py      :     0.986498
      dz2     :     0.005651  d :     0.030759
      dxz     :     0.003852
      dyz     :     0.008910
      dx2y2   :     0.005276
      dxy     :     0.007071
  1 C s       :     3.150052  s :     3.150052
      pz      :     0.996365  p :     2.723827
      px      :     0.750148
      py      :     0.977314
      dz2     :     0.011304  d :     0.064115
      dxz     :     0.012968
      dyz     :     0.011867
      dx2y2   :     0.012805
      dxy     :     0.015170
  2 H s       :     0.874438  s :     0.874438
      pz      :     0.002897  p :     0.011416
      px      :     0.006078
      py      :     0.002442
  3 H s       :     0.875292  s :     0.875292
      pz      :     0.003965  p :     0.011324
      px      :     0.002922
      py      :     0.004438
  4 H s       :     0.878450  s :     0.878450
      pz      :     0.005957  p :     0.011356
      px      :     0.002371
      py      :     0.003028
  5 O s       :     3.835083  s :     3.835083
      pz      :     1.864738  p :     4.735365
      px      :     1.314311
      py      :     1.556316
      dz2     :     0.003505  d :     0.021430
      dxz     :     0.003040
      dyz     :     0.002174
      dx2y2   :     0.004330
      dxy     :     0.008380
  6 H s       :     0.897683  s :     0.897683
      pz      :     0.006160  p :     0.010769
      px      :     0.001576
      py      :     0.003034
  7 H s       :     0.895791  s :     0.895791
      pz      :     0.003841  p :     0.010759
      px      :     0.002395
      py      :     0.004523
  8 H s       :     0.623224  s :     0.623224
      pz      :     0.009477  p :     0.037749
      px      :     0.011644
      py      :     0.016628


                     *******************************
                     * LOEWDIN POPULATION ANALYSIS *
                     *******************************

----------------------
LOEWDIN ATOMIC CHARGES
----------------------
   0 C :   -0.210599
   1 C :    0.003604
   2 H :    0.079432
   3 H :    0.073059
   4 H :    0.072232
   5 O :   -0.308968
   6 H :    0.053207
   7 H :    0.053573
   8 H :    0.184461

-------------------------------
LOEWDIN REDUCED ORBITAL CHARGES
-------------------------------
  0 C s       :     2.918342  s :     2.918342
      pz      :     1.097874  p :     3.229265
      px      :     1.072644
      py      :     1.058746
      dz2     :     0.011494  d :     0.062993
      dxz     :     0.007137
      dyz     :     0.017289
      dx2y2   :     0.010880
      dxy     :     0.016193
  1 C s       :     2.887345  s :     2.887345
      pz      :     1.053745  p :     2.969554
      px      :     0.865633
      py      :     1.050175
      dz2     :     0.024543  d :     0.139497
      dxz     :     0.027739
      dyz     :     0.023972
      dx2y2   :     0.026822
      dxy     :     0.036420
  2 H s       :     0.881761  s :     0.881761
      pz      :     0.009096  p :     0.038807
      px      :     0.021996
      py      :     0.007716
  3 H s       :     0.888235  s :     0.888235
      pz      :     0.013326  p :     0.038707
      px      :     0.009421
      py      :     0.015959
  4 H s       :     0.889081  s :     0.889081
      pz      :     0.021790  p :     0.038686
      px      :     0.006842
      py      :     0.010054
  5 O s       :     3.504185  s :     3.504185
      pz      :     1.848960  p :     4.761713
      px      :     1.344054
      py      :     1.568699
      dz2     :     0.006420  d :     0.043070
      dxz     :     0.007205
      dyz     :     0.002616
      dx2y2   :     0.009170
      dxy     :     0.017658
  6 H s       :     0.908717  s :     0.908717
      pz      :     0.023265  p :     0.038076
      px      :     0.005278
      py      :     0.009532
  7 H s       :     0.908342  s :     0.908342
      pz      :     0.013580  p :     0.038085
      px      :     0.008763
      py      :     0.015743
  8 H s       :     0.699474  s :     0.699474
      pz      :     0.028658  p :     0.116065
      px      :     0.033937
      py      :     0.053470


                      *****************************
                      * MAYER POPULATION ANALYSIS *
                      *****************************

  NA   - Mulliken gross atomic population
  ZA   - Total nuclear charge
  QA   - Mulliken gross atomic charge
  VA   - Mayer's total valence
  BVA  - Mayer's bonded valence
  FA   - Mayer's free valence

  ATOM       NA         ZA         QA         VA         BVA        FA
  0 C      6.3319     6.0000    -0.3319     3.8927     3.8927     0.0000
  1 C      5.9380     6.0000     0.0620     3.8617     3.8617     0.0000
  2 H      0.8859     1.0000     0.1141     0.9557     0.9557    -0.0000
  3 H      0.8866     1.0000     0.1134     0.9561     0.9561    -0.0000
  4 H      0.8898     1.0000     0.1102     0.9566     0.9566     0.0000
  5 O      8.5919     8.0000    -0.5919     1.8316     1.8316    -0.0000
  6 H      0.9085     1.0000     0.0915     0.9439     0.9439     0.0000
  7 H      0.9065     1.0000     0.0935     0.9436     0.9436    -0.0000
  8 H      0.6610     1.0000     0.3390     0.8804     0.8804    -0.0000

  Mayer bond orders larger than 0.1
B(  0-C ,  1-C ) :   1.0226 B(  0-C ,  2-H ) :   0.9599 B(  0-C ,  3-H ) :   0.9631 
B(  0-C ,  4-H ) :   0.9631 B(  1-C ,  5-O ) :   0.9424 B(  1-C ,  6-H ) :   0.9498 
B(  1-C ,  7-H ) :   0.9500 B(  5-O ,  8-H ) :   0.8663 

-------
TIMINGS
-------

Total SCF time: 0 days 0 hours 0 min 18 sec 

Total time                  ....      18.653 sec
Sum of individual times     ....      18.590 sec  ( 99.7%)

Fock matrix formation       ....      17.310 sec  ( 92.8%)
  XC integration            ....       2.567 sec  ( 14.8% of F)
    Basis function eval.    ....       1.012 sec  ( 39.4% of XC)
    Density eval.           ....       0.418 sec  ( 16.3% of XC)
    XC-Functional eval.     ....       0.284 sec  ( 11.1% of XC)
    XC-Potential eval.      ....       0.453 sec  ( 17.6% of XC)
Diagonalization             ....       0.020 sec  (  0.1%)
Density matrix formation    ....       0.001 sec  (  0.0%)
Population analysis         ....       0.003 sec  (  0.0%)
Initial guess               ....       0.373 sec  (  2.0%)
Orbital Transformation      ....       0.000 sec  (  0.0%)
Orbital Orthonormalization  ....       0.000 sec  (  0.0%)
DIIS solution               ....       0.006 sec  (  0.0%)
SOSCF solution              ....       0.016 sec  (  0.1%)
Grid generation             ....       0.860 sec  (  4.6%)

-------------------------   --------------------
FINAL SINGLE POINT ENERGY      -154.954800116662
-------------------------   --------------------

------------------------------------------------------------------------------
                         ORCA SCF GRADIENT CALCULATION
------------------------------------------------------------------------------

Gradient of the Kohn-Sham DFT energy:
Kohn-Sham wavefunction type      ... RKS
Hartree-Fock exchange scaling    ...    0.200
Number of operators              ...    1
Number of atoms                  ...    9
Basis set dimensions             ...   72
Integral neglect threshold       ... 2.5e-11
Integral primitive cutoff        ... 2.5e-12

Nuclear repulsion gradient       ... done
One Electron Gradient            ... done
Pre-screening matrix             ... done
Starting the two electron gradient:
Two electron gradient done
Exchange-correlation gradient    ... done

------------------
CARTESIAN GRADIENT
------------------

   1   C   :   -0.000704125    0.004817610    0.001163645
   2   C   :   -0.002009484   -0.001648204    0.000137893
   3   H   :    0.000250216   -0.000116683   -0.000053989
   4   H   :    0.000300196   -0.000571953   -0.001896743
   5   H   :    0.001327765   -0.001198568    0.000984833
   6   O   :   -0.011534243    0.001479131    0.004068508
   7   H   :    0.004460849   -0.003577779   -0.003705541
   8   H   :    0.005411698   -0.004193443   -0.000874471
   9   H   :    0.002497128    0.005009889    0.000175866

Difference to translation invariance:
           :    0.0000000000   -0.0000000000    0.0000000000

Norm of the cartesian gradient     ...    0.0178131423
RMS gradient                       ...    0.0034281408
MAX gradient                       ...    0.0115342427

-------
TIMINGS
-------

Total SCF gradient time            ...        6.451 sec

One electron gradient       ....       0.043 sec  (  0.7%)
Prescreening matrices       ....       0.064 sec  (  1.0%)
Two electron gradient       ....       2.650 sec  ( 41.1%)
XC gradient                 ....       3.191 sec  ( 49.5%)
CPCM gradient               ....       0.289 sec  (  4.5%)
   A-Matrix (El+Nuc)        ....       0.006 sec  (  0.1%)
   Potential                ....       0.283 sec  (  4.4%)

                            ***************************************
                            *     ORCA property calculations      *
                            ***************************************

                                    ---------------------
                                    Active property flags
                                    ---------------------
   (+) Dipole Moment


------------------------------------------------------------------------------
                       ORCA ELECTRIC PROPERTIES CALCULATION
------------------------------------------------------------------------------

Dipole Moment Calculation                       ... on
Quadrupole Moment Calculation                   ... off
Polarizability Calculation                      ... off
GBWName                                         ... etanol.gbw
Electron density file                           ... etanol.scfp.tmp
The origin for moment calculation is the CENTER OF MASS  = (-6.858740,  0.528073 -0.389018)

-------------
DIPOLE MOMENT
-------------
                                X             Y             Z
Electronic contribution:      2.47603       0.60280      -0.69824
Nuclear contribution   :     -2.64576       0.12585       0.89246
                        -----------------------------------------
Total Dipole Moment    :     -0.16973       0.72865       0.19421
                        -----------------------------------------
Magnitude (a.u.)       :      0.77295
Magnitude (Debye)      :      1.96469


----------------------------------------------------------------------------
                           ORCA NUMERICAL FREQUENCIES
----------------------------------------------------------------------------

Number of atoms                ... 9
Central differences            ... used
Number of displacements        ... 54
Numerical increment            ...  0.005 bohr
IR-spectrum generation         ... on
Raman-spectrum generation      ... off
Surface Crossing Hessian       ... off

The output will be reduced. Please look at the following files:
SCF program output             ... >etanol.lastscf
Integral program output        ... >etanol.lastint
Gradient program output        ... >etanol.lastgrad
Dipole moment program output   ... >etanol.lastmom


         <<<Energy and Gradient at the input geometry>>>
The origin for moment calculation is the CENTER OF MASS  = (-6.858740,  0.528073 -0.389018)
             <<<Displacing   1/coordinate 1 (+)>>>
The origin for moment calculation is the CENTER OF MASS  = (-6.857437,  0.528073 -0.389018)
             <<<Displacing   1/coordinate 1 (-)>>>
The origin for moment calculation is the CENTER OF MASS  = (-6.860044,  0.528073 -0.389018)
             <<<Displacing   1/coordinate 2 (+)>>>
The origin for moment calculation is the CENTER OF MASS  = (-6.858740,  0.529377 -0.389018)
             <<<Displacing   1/coordinate 2 (-)>>>
The origin for moment calculation is the CENTER OF MASS  = (-6.858740,  0.526770 -0.389018)
             <<<Displacing   1/coordinate 3 (+)>>>
The origin for moment calculation is the CENTER OF MASS  = (-6.858740,  0.528073 -0.387715)
             <<<Displacing   1/coordinate 3 (-)>>>
The origin for moment calculation is the CENTER OF MASS  = (-6.858740,  0.528073 -0.390322)
             <<<Displacing   2/coordinate 1 (+)>>>
The origin for moment calculation is the CENTER OF MASS  = (-6.857437,  0.528073 -0.389018)
             <<<Displacing   2/coordinate 1 (-)>>>
The origin for moment calculation is the CENTER OF MASS  = (-6.860044,  0.528073 -0.389018)
             <<<Displacing   2/coordinate 2 (+)>>>
The origin for moment calculation is the CENTER OF MASS  = (-6.858740,  0.529377 -0.389018)
             <<<Displacing   2/coordinate 2 (-)>>>
The origin for moment calculation is the CENTER OF MASS  = (-6.858740,  0.526770 -0.389018)
             <<<Displacing   2/coordinate 3 (+)>>>
The origin for moment calculation is the CENTER OF MASS  = (-6.858740,  0.528073 -0.387715)
             <<<Displacing   2/coordinate 3 (-)>>>
The origin for moment calculation is the CENTER OF MASS  = (-6.858740,  0.528073 -0.390322)
             <<<Displacing   3/coordinate 1 (+)>>>
The origin for moment calculation is the CENTER OF MASS  = (-6.858631,  0.528073 -0.389018)
             <<<Displacing   3/coordinate 1 (-)>>>
The origin for moment calculation is the CENTER OF MASS  = (-6.858850,  0.528073 -0.389018)
             <<<Displacing   3/coordinate 2 (+)>>>
The origin for moment calculation is the CENTER OF MASS  = (-6.858740,  0.528183 -0.389018)
             <<<Displacing   3/coordinate 2 (-)>>>
The origin for moment calculation is the CENTER OF MASS  = (-6.858740,  0.527964 -0.389018)
             <<<Displacing   3/coordinate 3 (+)>>>
The origin for moment calculation is the CENTER OF MASS  = (-6.858740,  0.528073 -0.388909)
             <<<Displacing   3/coordinate 3 (-)>>>
The origin for moment calculation is the CENTER OF MASS  = (-6.858740,  0.528073 -0.389128)
             <<<Displacing   4/coordinate 1 (+)>>>
The origin for moment calculation is the CENTER OF MASS  = (-6.858631,  0.528073 -0.389018)
             <<<Displacing   4/coordinate 1 (-)>>>
The origin for moment calculation is the CENTER OF MASS  = (-6.858850,  0.528073 -0.389018)
             <<<Displacing   4/coordinate 2 (+)>>>
The origin for moment calculation is the CENTER OF MASS  = (-6.858740,  0.528183 -0.389018)
             <<<Displacing   4/coordinate 2 (-)>>>
The origin for moment calculation is the CENTER OF MASS  = (-6.858740,  0.527964 -0.389018)
             <<<Displacing   4/coordinate 3 (+)>>>
The origin for moment calculation is the CENTER OF MASS  = (-6.858740,  0.528073 -0.388909)
             <<<Displacing   4/coordinate 3 (-)>>>
The origin for moment calculation is the CENTER OF MASS  = (-6.858740,  0.528073 -0.389128)
             <<<Displacing   5/coordinate 1 (+)>>>
The origin for moment calculation is the CENTER OF MASS  = (-6.858631,  0.528073 -0.389018)
             <<<Displacing   5/coordinate 1 (-)>>>
The origin for moment calculation is the CENTER OF MASS  = (-6.858850,  0.528073 -0.389018)
             <<<Displacing   5/coordinate 2 (+)>>>
The origin for moment calculation is the CENTER OF MASS  = (-6.858740,  0.528183 -0.389018)
             <<<Displacing   5/coordinate 2 (-)>>>
The origin for moment calculation is the CENTER OF MASS  = (-6.858740,  0.527964 -0.389018)
             <<<Displacing   5/coordinate 3 (+)>>>
The origin for moment calculation is the CENTER OF MASS  = (-6.858740,  0.528073 -0.388909)
             <<<Displacing   5/coordinate 3 (-)>>>
The origin for moment calculation is the CENTER OF MASS  = (-6.858740,  0.528073 -0.389128)
             <<<Displacing   6/coordinate 1 (+)>>>
The origin for moment calculation is the CENTER OF MASS  = (-6.857004,  0.528073 -0.389018)
             <<<Displacing   6/coordinate 1 (-)>>>
The origin for moment calculation is the CENTER OF MASS  = (-6.860477,  0.528073 -0.389018)
             <<<Displacing   6/coordinate 2 (+)>>>
The origin for moment calculation is the CENTER OF MASS  = (-6.858740,  0.529810 -0.389018)
             <<<Displacing   6/coordinate 2 (-)>>>
The origin for moment calculation is the CENTER OF MASS  = (-6.858740,  0.526337 -0.389018)
             <<<Displacing   6/coordinate 3 (+)>>>
The origin for moment calculation is the CENTER OF MASS  = (-6.858740,  0.528073 -0.387282)
             <<<Displacing   6/coordinate 3 (-)>>>
The origin for moment calculation is the CENTER OF MASS  = (-6.858740,  0.528073 -0.390755)
             <<<Displacing   7/coordinate 1 (+)>>>
The origin for moment calculation is the CENTER OF MASS  = (-6.858631,  0.528073 -0.389018)
             <<<Displacing   7/coordinate 1 (-)>>>
The origin for moment calculation is the CENTER OF MASS  = (-6.858850,  0.528073 -0.389018)
             <<<Displacing   7/coordinate 2 (+)>>>
The origin for moment calculation is the CENTER OF MASS  = (-6.858740,  0.528183 -0.389018)
             <<<Displacing   7/coordinate 2 (-)>>>
The origin for moment calculation is the CENTER OF MASS  = (-6.858740,  0.527964 -0.389018)
             <<<Displacing   7/coordinate 3 (+)>>>
The origin for moment calculation is the CENTER OF MASS  = (-6.858740,  0.528073 -0.388909)
             <<<Displacing   7/coordinate 3 (-)>>>
The origin for moment calculation is the CENTER OF MASS  = (-6.858740,  0.528073 -0.389128)
             <<<Displacing   8/coordinate 1 (+)>>>
The origin for moment calculation is the CENTER OF MASS  = (-6.858631,  0.528073 -0.389018)
             <<<Displacing   8/coordinate 1 (-)>>>
The origin for moment calculation is the CENTER OF MASS  = (-6.858850,  0.528073 -0.389018)
             <<<Displacing   8/coordinate 2 (+)>>>
The origin for moment calculation is the CENTER OF MASS  = (-6.858740,  0.528183 -0.389018)
             <<<Displacing   8/coordinate 2 (-)>>>
The origin for moment calculation is the CENTER OF MASS  = (-6.858740,  0.527964 -0.389018)
             <<<Displacing   8/coordinate 3 (+)>>>
The origin for moment calculation is the CENTER OF MASS  = (-6.858740,  0.528073 -0.388909)
             <<<Displacing   8/coordinate 3 (-)>>>
The origin for moment calculation is the CENTER OF MASS  = (-6.858740,  0.528073 -0.389128)
             <<<Displacing   9/coordinate 1 (+)>>>
The origin for moment calculation is the CENTER OF MASS  = (-6.858631,  0.528073 -0.389018)
             <<<Displacing   9/coordinate 1 (-)>>>
The origin for moment calculation is the CENTER OF MASS  = (-6.858850,  0.528073 -0.389018)
             <<<Displacing   9/coordinate 2 (+)>>>
The origin for moment calculation is the CENTER OF MASS  = (-6.858740,  0.528183 -0.389018)
             <<<Displacing   9/coordinate 2 (-)>>>
The origin for moment calculation is the CENTER OF MASS  = (-6.858740,  0.527964 -0.389018)
             <<<Displacing   9/coordinate 3 (+)>>>
The origin for moment calculation is the CENTER OF MASS  = (-6.858740,  0.528073 -0.388909)
             <<<Displacing   9/coordinate 3 (-)>>>
The origin for moment calculation is the CENTER OF MASS  = (-6.858740,  0.528073 -0.389128)

-----------------------
VIBRATIONAL FREQUENCIES
-----------------------

   0:         0.00 cm**-1
   1:         0.00 cm**-1
   2:         0.00 cm**-1
   3:         0.00 cm**-1
   4:         0.00 cm**-1
   5:         0.00 cm**-1
   6:       238.34 cm**-1
   7:       375.75 cm**-1
   8:       413.26 cm**-1
   9:       803.50 cm**-1
  10:       910.20 cm**-1
  11:      1051.45 cm**-1
  12:      1139.65 cm**-1
  13:      1185.37 cm**-1
  14:      1284.38 cm**-1
  15:      1302.23 cm**-1
  16:      1406.14 cm**-1
  17:      1468.47 cm**-1
  18:      1478.56 cm**-1
  19:      1495.84 cm**-1
  20:      1522.60 cm**-1
  21:      3040.83 cm**-1
  22:      3047.60 cm**-1
  23:      3078.56 cm**-1
  24:      3113.34 cm**-1
  25:      3133.10 cm**-1
  26:      3733.31 cm**-1


------------
NORMAL MODES
------------

These modes are the cartesian displacements weighted by the diagonal matrix
M(i,i)=1/sqrt(m[i]) where m[i] is the mass of the displaced atom
Thus, these vectors are normalized but *not* orthogonal

                  0          1          2          3          4          5    
      0       0.000000   0.000000   0.000000   0.000000   0.000000   0.000000
      1       0.000000   0.000000   0.000000   0.000000   0.000000   0.000000
      2       0.000000   0.000000   0.000000   0.000000   0.000000   0.000000
      3       0.000000   0.000000   0.000000   0.000000   0.000000   0.000000
      4       0.000000   0.000000   0.000000   0.000000   0.000000   0.000000
      5       0.000000   0.000000   0.000000   0.000000   0.000000   0.000000
      6       0.000000   0.000000   0.000000   0.000000   0.000000   0.000000
      7       0.000000   0.000000   0.000000   0.000000   0.000000   0.000000
      8       0.000000   0.000000   0.000000   0.000000   0.000000   0.000000
      9       0.000000   0.000000   0.000000   0.000000   0.000000   0.000000
     10       0.000000   0.000000   0.000000   0.000000   0.000000   0.000000
     11       0.000000   0.000000   0.000000   0.000000   0.000000   0.000000
     12       0.000000   0.000000   0.000000   0.000000   0.000000   0.000000
     13       0.000000   0.000000   0.000000   0.000000   0.000000   0.000000
     14       0.000000   0.000000   0.000000   0.000000   0.000000   0.000000
     15       0.000000   0.000000   0.000000   0.000000   0.000000   0.000000
     16       0.000000   0.000000   0.000000   0.000000   0.000000   0.000000
     17       0.000000   0.000000   0.000000   0.000000   0.000000   0.000000
     18       0.000000   0.000000   0.000000   0.000000   0.000000   0.000000
     19       0.000000   0.000000   0.000000   0.000000   0.000000   0.000000
     20       0.000000   0.000000   0.000000   0.000000   0.000000   0.000000
     21       0.000000   0.000000   0.000000   0.000000   0.000000   0.000000
     22       0.000000   0.000000   0.000000   0.000000   0.000000   0.000000
     23       0.000000   0.000000   0.000000   0.000000   0.000000   0.000000
     24       0.000000   0.000000   0.000000   0.000000   0.000000   0.000000
     25       0.000000   0.000000   0.000000   0.000000   0.000000   0.000000
     26       0.000000   0.000000   0.000000   0.000000   0.000000   0.000000
                  6          7          8          9         10         11    
      0       0.001567   0.013211  -0.187825  -0.015108   0.188966  -0.018768
      1      -0.000474  -0.004630  -0.032057   0.007794   0.070467  -0.191208
      2       0.003349   0.025722   0.057460  -0.043030  -0.049257  -0.029498
      3       0.021424  -0.013445   0.045206  -0.019258   0.038316   0.126634
      4      -0.012093   0.011362  -0.175291   0.011056  -0.131586   0.170893
      5       0.065530  -0.036937  -0.049836  -0.057731  -0.037742  -0.010049
      6      -0.180893   0.025592  -0.055321   0.055182   0.393247   0.090112
      7       0.103398  -0.023079   0.410017  -0.034698   0.735130   0.201573
      8      -0.552365   0.071485   0.096525   0.172517   0.010995   0.006961
      9      -0.328392   0.078648  -0.465580   0.272180  -0.166178  -0.376790
     10       0.157716   0.026586  -0.109858   0.355163   0.017429  -0.284891
     11       0.399726   0.018433   0.147757   0.179807   0.112549   0.096485
     12       0.481071  -0.035661  -0.474429  -0.154773  -0.201745  -0.390689
     13      -0.243792  -0.035530  -0.109546  -0.420806   0.028756  -0.273174
     14       0.057650   0.044822   0.126152   0.172658   0.019951   0.049840
     15      -0.021556  -0.021712   0.175071   0.007059  -0.143569  -0.068326
     16       0.011853   0.006904   0.146805  -0.003618   0.019070   0.038177
     17      -0.064222  -0.052519  -0.033616   0.019123   0.050937   0.030111
     18       0.090501   0.012048  -0.017272  -0.057618  -0.167037   0.019399
     19      -0.096354   0.021562  -0.178981  -0.463929  -0.179472   0.161140
     20       0.093997  -0.049383  -0.041079   0.163954   0.020918   0.018440
     21      -0.009337  -0.040113  -0.014864   0.194233  -0.164345   0.021641
     22       0.050060   0.003345  -0.184144   0.389732  -0.174591   0.163500
     23       0.154613  -0.036055  -0.021912   0.244246   0.024099   0.031504
     24       0.015241   0.306882  -0.051855  -0.011753  -0.123426   0.435508
     25      -0.009413  -0.182688   0.313109   0.007349  -0.001653  -0.332028
     26       0.044983   0.917931   0.135260  -0.036065   0.039659  -0.209924
                 12         13         14         15         16         17    
      0       0.098210   0.036932   0.046265  -0.023190   0.078571   0.066171
      1      -0.019077  -0.020197  -0.057692   0.011954   0.112158   0.043893
      2      -0.034715   0.112849  -0.023132  -0.074768  -0.004631  -0.012786
      3      -0.276470  -0.054032  -0.040467   0.003350   0.033922  -0.124924
      4       0.099418   0.030223   0.061905  -0.000246   0.017994  -0.108686
      5       0.107884  -0.167522   0.024571   0.014195  -0.007361   0.021439
      6       0.219729  -0.073976   0.095082   0.034109  -0.143657  -0.028181
      7       0.411602   0.038617   0.127095  -0.012558  -0.570116  -0.234123
      8       0.002790  -0.221638  -0.011965   0.093520  -0.064866  -0.050550
      9      -0.180236  -0.177455  -0.174145   0.102134  -0.422006  -0.184391
     10      -0.004913  -0.323870  -0.076909   0.194044  -0.254917   0.015330
     11       0.146499  -0.117910   0.093502   0.058568  -0.085122   0.110254
     12      -0.229147   0.114823  -0.198720  -0.081223  -0.328836  -0.231982
     13       0.030730   0.361152  -0.045488  -0.216457  -0.316230   0.028226
     14      -0.008758  -0.081506   0.002716   0.038138   0.224332   0.032797
     15       0.177900   0.015503   0.009009   0.010816   0.004366  -0.014171
     16      -0.074129  -0.009074  -0.053927  -0.007804  -0.019805   0.060432
     17      -0.071869   0.049604  -0.014574   0.031219  -0.005225   0.016137
     18      -0.400452   0.362323   0.299070   0.630247  -0.193900   0.474102
     19      -0.038162  -0.407110   0.204406   0.175697  -0.086636   0.138572
     20       0.161228  -0.027208  -0.080041  -0.153638   0.066148  -0.173062
     21      -0.425261  -0.260678   0.351736  -0.600032  -0.204374   0.495185
     22      -0.019213   0.351552   0.208568  -0.169977  -0.081182   0.120126
     23       0.102202   0.323555  -0.057825   0.186127   0.033177  -0.097280
     24       0.315814  -0.007359  -0.585096  -0.020487  -0.116951   0.400267
     25      -0.160775   0.004219   0.388068   0.013604   0.072578  -0.255257
     26      -0.135101  -0.011142   0.267779   0.003538   0.052160  -0.181386
                 18         19         20         21         22         23    
      0       0.013902   0.016185   0.012658   0.006758  -0.023134  -0.009649
      1      -0.011323  -0.040188  -0.021082   0.001659  -0.044962   0.005758
      2       0.044956  -0.014439  -0.008805  -0.001897  -0.001311  -0.028998
      3       0.010316   0.025869   0.038756  -0.010531   0.000297   0.027558
      4      -0.001869   0.048318  -0.061395   0.061614   0.008646  -0.015941
      5       0.021679  -0.000477  -0.024428   0.015399   0.001816   0.083734
      6      -0.218959  -0.052535  -0.039336  -0.099181   0.445713  -0.002462
      7       0.121598  -0.248308  -0.185978   0.033678  -0.130804   0.001370
      8      -0.662747  -0.005756  -0.013081   0.039025  -0.170988  -0.008057
      9       0.456704  -0.076329  -0.040746   0.023170  -0.242553   0.098420
     10       0.066782   0.318750   0.220999  -0.039028   0.412894  -0.170000
     11      -0.176054   0.444660   0.295614   0.031863  -0.369671   0.144092
     12      -0.488221  -0.251813  -0.167223  -0.003869   0.060944   0.021138
     13      -0.016847   0.440166   0.302049  -0.023907   0.240390   0.099225
     14       0.090461  -0.190160  -0.127717  -0.050846   0.557078   0.215715
     15      -0.000690  -0.007752   0.005978  -0.003083  -0.000448   0.000044
     16      -0.000420   0.000521  -0.008670   0.000413   0.000101  -0.000080
     17      -0.002378   0.002820  -0.003613   0.001061   0.000140   0.000182
     18      -0.003662   0.094417  -0.327599  -0.089115  -0.012656  -0.083077
     19       0.035679  -0.363342   0.447977  -0.265233  -0.034167  -0.271098
     20       0.009426   0.159966  -0.184430  -0.641880  -0.078636  -0.595939
     21      -0.014474  -0.055574  -0.111899   0.266780   0.030095  -0.246804
     22      -0.048849  -0.273818   0.322785  -0.468924  -0.057423   0.461787
     23      -0.011499  -0.292064   0.473514   0.442340   0.053189  -0.406247
     24      -0.009017  -0.036227  -0.020708  -0.003888  -0.002311  -0.001319
     25       0.005494   0.021417   0.012553   0.002926   0.000237   0.001324
     26      -0.005845   0.016339   0.009440   0.001767   0.000787  -0.004681
                  24         25         26    
      0      -0.026081  -0.072283  -0.000125
      1       0.015125   0.048689   0.000344
      2      -0.081816   0.032194   0.000124
      3      -0.010179  -0.001507   0.000463
      4       0.005852   0.005033  -0.001879
      5      -0.031045   0.000887  -0.000557
      6      -0.013228   0.778812   0.001268
      7       0.004978  -0.214676  -0.000838
      8      -0.011295  -0.296222  -0.000661
      9       0.261668   0.132048   0.000252
     10      -0.463961  -0.242655   0.000585
     11       0.390743   0.226474  -0.000307
     12       0.063612  -0.048453   0.000499
     13       0.278688  -0.133318   0.000612
     14       0.598825  -0.315760   0.000141
     15      -0.000041   0.000348  -0.037513
     16       0.000014  -0.000042  -0.049847
     17      -0.000054  -0.000104   0.002938
     18       0.032797  -0.005131   0.003835
     19       0.096447  -0.015978  -0.000355
     20       0.215905  -0.034543  -0.000143
     21       0.087057   0.016782   0.003513
     22      -0.165714  -0.031712  -0.000380
     23       0.149042   0.027585  -0.001762
     24       0.000811  -0.000325   0.582006
     25      -0.000619  -0.001125   0.809833
     26       0.002459  -0.000065  -0.038739


-----------
IR SPECTRUM
-----------

 Mode    freq (cm**-1)   T**2         TX         TY         TZ
-------------------------------------------------------------------
   6:       238.34    6.095585  (  0.894974  -0.390291   2.267659)
   7:       375.75  188.611868  (  4.367898  -2.522637  12.773787)
   8:       413.26   16.172601  ( -3.639129  -0.315438   1.682214)
   9:       803.50    0.072577  (  0.086671   0.086320   0.240029)
  10:       910.20   13.615980  (  3.394508  -0.688960  -1.272253)
  11:      1051.45   67.681038  (  7.612192  -1.351423  -2.812334)
  12:      1139.65   66.075489  ( -7.390146   1.943305   2.772146)
  13:      1185.37    9.618571  ( -0.940285   0.558314  -2.902192)
  14:      1284.38  123.384302  ( -9.581430   4.021334   3.925477)
  15:      1302.23    0.484599  ( -0.489566   0.266900  -0.416759)
  16:      1406.14    2.476849  ( -1.480463  -0.339553   0.412046)
  17:      1468.47   21.003837  ( -1.593170  -4.286779  -0.298611)
  18:      1478.56    7.381798  ( -0.826948   0.665477  -2.501019)
  19:      1495.84    2.744310  ( -1.246529   0.877351   0.648638)
  20:      1522.60    1.140905  (  0.880784   0.566959  -0.209003)
  21:      3040.83   96.991300  ( -2.941135   9.021257   2.637793)
  22:      3047.60   18.359100  ( -2.413802  -3.538224   0.116751)
  23:      3078.56   56.635886  (  2.352956  -1.259671   7.036527)
  24:      3113.34   98.982957  ( -2.959133   1.585695  -9.365472)
  25:      3133.10   40.045575  ( -4.335433   4.132021   2.043525)
  26:      3733.31   50.676258  (  5.259568   4.739777  -0.740083)

The first frequency considered to be a vibration is 6
The total number of vibrations considered is 21


--------------------------
THERMOCHEMISTRY AT 298.15K
--------------------------

Temperature         ... 298.15 K
Pressure            ... 1.00 atm
Total Mass          ... 46.07 AMU

Throughout the following assumptions are being made:
  (1) The electronic state is orbitally nondegenerate
  (2) There are no thermally accessible electronically excited states
  (3) Hindered rotations indicated by low frequency modes are not
      treated as such but are treated as vibrations and this may
      cause some error
  (4) All equations used are the standard statistical mechanics
      equations for an ideal gas
  (5) All vibrations are strictly harmonic

freq.     238.34  E(vib)   ...       0.32 
freq.     375.75  E(vib)   ...       0.21 
freq.     413.26  E(vib)   ...       0.19 
freq.     803.50  E(vib)   ...       0.05 
freq.     910.20  E(vib)   ...       0.03 
freq.    1051.45  E(vib)   ...       0.02 
freq.    1139.65  E(vib)   ...       0.01 
freq.    1185.37  E(vib)   ...       0.01 
freq.    1284.38  E(vib)   ...       0.01 
freq.    1302.23  E(vib)   ...       0.01 
freq.    1406.14  E(vib)   ...       0.00 
freq.    1468.47  E(vib)   ...       0.00 
freq.    1478.56  E(vib)   ...       0.00 
freq.    1495.84  E(vib)   ...       0.00 
freq.    1522.60  E(vib)   ...       0.00 
freq.    3040.83  E(vib)   ...       0.00 
freq.    3047.60  E(vib)   ...       0.00 
freq.    3078.56  E(vib)   ...       0.00 
freq.    3113.34  E(vib)   ...       0.00 
freq.    3133.10  E(vib)   ...       0.00 
freq.    3733.31  E(vib)   ...       0.00 

------------
INNER ENERGY
------------

The inner energy is: U= E(el) + E(ZPE) + E(vib) + E(rot) + E(trans)
    E(el)   - is the total energy from the electronic structure calculation
              = E(kin-el) + E(nuc-el) + E(el-el) + E(nuc-nuc)
    E(ZPE)  - the the zero temperature vibrational energy from the frequency calculation
    E(vib)  - the the finite temperature correction to E(ZPE) due to population
              of excited vibrational states
    E(rot)  - is the rotational thermal energy
    E(trans)- is the translational thermal energy

Summary of contributions to the inner energy U:
Electronic energy                ...   -154.95480012 Eh
Zero point energy                ...      0.08024272 Eh      50.35 kcal/mol
Thermal vibrational correction   ...      0.00138288 Eh       0.87 kcal/mol
Thermal rotational correction    ...      0.00141627 Eh       0.89 kcal/mol
Thermal translational correction ...      0.00141627 Eh       0.89 kcal/mol
-----------------------------------------------------------------------
Total thermal energy                   -154.87034198 Eh


Summary of corrections to the electronic energy:
(perhaps to be used in another calculation)
Total thermal correction                  0.00421542 Eh       2.65 kcal/mol
Non-thermal (ZPE) correction              0.08024272 Eh      50.35 kcal/mol
-----------------------------------------------------------------------
Total correction                          0.08445814 Eh      53.00 kcal/mol


--------
ENTHALPY
--------

The enthalpy is H = U + kB*T
                kB is Boltzmann's constant
Total free energy                 ...   -154.87034198 Eh 
Thermal Enthalpy correction       ...      0.00094421 Eh       0.59 kcal/mol
-----------------------------------------------------------------------
Total Enthalpy                    ...   -154.86939777 Eh


Vibrational entropy computed according to the QRRHO of S. Grimme
Chem.Eur.J. 2012 18 9955


-------
ENTROPY
-------

The entropy contributions are T*S = T*(S(el)+S(vib)+S(rot)+S(trans)
     S(el)   - electronic entropy
     S(vib)  - vibrational entropy
     S(rot)  - rotational entropy
     S(trans)- translational entropy
The entropies will be listed as mutliplied by the temperature to get
units of energy

Electronic entropy                ...      0.00000000 Eh      0.00 kcal/mol
Vibrational entropy               ...      0.00210526 Eh      1.32 kcal/mol
Rotational entropy                ...      0.00955797 Eh      6.00 kcal/mol
Translational entropy             ...      0.01777359 Eh     11.15 kcal/mol
-----------------------------------------------------------------------
Final entropy term                ...      0.02943682 Eh     18.47 kcal/mol


CAUTION: The rotational entropy is not quite correctly treated here
         because it includes a symmetry number that is not yet correctly
         implemented in ORCA!
For a nonlinear molecule the correct rotational entropy is:
    S(rot) = R*(ln(qrot/sn)+1.5)
    R    = 8.31441 J/mol/K = 1.987191683e-3 kcal/mol/K
    qrot = 16674.6357998
    sn is the rotational symmetry number. We have assumed 3 here
       if it is different for your molecule then you should correct
       the printed rotational entropy by manually evaluating the equation
       as given above

For convenience we print out the resulting values for sn=1 - 12:
 sn= 1  qrot/sn=   16674.6358 T*S(rot)=     6.65 kcal/mol T*S(tot)=    19.12 kcal/mol
 sn= 2  qrot/sn=    8337.3179 T*S(rot)=     6.24 kcal/mol T*S(tot)=    18.71 kcal/mol
 sn= 3  qrot/sn=    5558.2119 T*S(rot)=     6.00 kcal/mol T*S(tot)=    18.47 kcal/mol
 sn= 4  qrot/sn=    4168.6589 T*S(rot)=     5.83 kcal/mol T*S(tot)=    18.30 kcal/mol
 sn= 5  qrot/sn=    3334.9272 T*S(rot)=     5.70 kcal/mol T*S(tot)=    18.17 kcal/mol
 sn= 6  qrot/sn=    2779.1060 T*S(rot)=     5.59 kcal/mol T*S(tot)=    18.06 kcal/mol
 sn= 7  qrot/sn=    2382.0908 T*S(rot)=     5.50 kcal/mol T*S(tot)=    17.97 kcal/mol
 sn= 8  qrot/sn=    2084.3295 T*S(rot)=     5.42 kcal/mol T*S(tot)=    17.89 kcal/mol
 sn= 9  qrot/sn=    1852.7373 T*S(rot)=     5.35 kcal/mol T*S(tot)=    17.82 kcal/mol
 sn=10  qrot/sn=    1667.4636 T*S(rot)=     5.28 kcal/mol T*S(tot)=    17.76 kcal/mol
 sn=11  qrot/sn=    1515.8760 T*S(rot)=     5.23 kcal/mol T*S(tot)=    17.70 kcal/mol
 sn=12  qrot/sn=    1389.5530 T*S(rot)=     5.18 kcal/mol T*S(tot)=    17.65 kcal/mol


-------------------
GIBBS FREE ENTHALPY
-------------------

The Gibbs free enthalpy is G = H - T*S

Total enthalpy                    ...   -154.86939777 Eh 
Total entropy correction          ...     -0.02943682 Eh    -18.47 kcal/mol
-----------------------------------------------------------------------
Final Gibbs free enthalpy         ...   -154.89883459 Eh

For completeness - the Gibbs free enthalpy minus the electronic energy
G-E(el)                           ...      0.05596553 Eh     35.12 kcal/mol


Total Time for Numerical Frequencies  :      1090.511 sec
Time for Reference State(s)           :        12.491 sec
Time for Displacements                :      1077.767 sec

Timings for individual modules:

Sum of individual times         ...       38.024 sec (=   0.634 min)
GTO integral calculation        ...        1.122 sec (=   0.019 min)   3.0 %
SCF iterations                  ...       23.749 sec (=   0.396 min)  62.5 %
SCF Gradient evaluation         ...       13.153 sec (=   0.219 min)  34.6 %
                             ****ORCA TERMINATED NORMALLY****
TOTAL RUN TIME: 0 days 0 hours 18 minutes 36 seconds 504 msec
