
                                 *****************
                                 * O   R   C   A *
                                 *****************

           --- An Ab Initio, DFT and Semiempirical electronic structure package ---

                  #######################################################
                  #                        -***-                        #
                  #  Department of molecular theory and spectroscopy    #
                  #              Directorship: Frank Neese              #
                  # Max Planck Institute for Chemical Energy Conversion #
                  #                  D-45470 Muelheim/Ruhr              #
                  #                       Germany                       #
                  #                                                     #
                  #                  All rights reserved                #
                  #                        -***-                        #
                  #######################################################


                         Program Version 4.0.1 -  RELEASE  -


 With contributions from (in alphabetic order):
   Daniel Aravena         : Magnetic Properties
   Michael Atanasov       : Ab Initio Ligand Field Theory
   Ute Becker             : Parallelization
   Martin Brehm           : Molecular dynamics
   Dmytro Bykov           : SCF Hessian
   Vijay G. Chilkuri      : MRCI spin determinant printing
   Dipayan Datta          : RHF DLPNO-CCSD density
   Achintya Kumar Dutta   : EOM-CC, STEOM-CC
   Dmitry Ganyushin       : Spin-Orbit,Spin-Spin,Magnetic field MRCI
   Yang Guo               : DLPNO-NEVPT2, CIM, IAO-localization
   Andreas Hansen         : Spin unrestricted coupled pair/coupled cluster methods
   Lee Huntington         : MR-EOM, pCC
   Robert Izsak           : Overlap fitted RIJCOSX, COSX-SCS-MP3, EOM
   Christian Kollmar      : KDIIS, OOCD, Brueckner-CCSD(T), CCSD density
   Simone Kossmann        : Meta GGA functionals, TD-DFT gradient, OOMP2, MP2 Hessian
   Martin Krupicka        : AUTO-CI
   Dagmar Lenk            : GEPOL surface
   Dimitrios Liakos       : Extrapolation schemes; parallel MDCI
   Dimitrios Manganas     : ROCIS; embedding schemes
   Dimitrios Pantazis     : SARC Basis sets
   Taras Petrenko         : DFT Hessian,TD-DFT gradient, ASA, ECA, R-Raman, ABS, FL, XAS/XES, NRVS
   Peter Pinski           : DLPNO-MP2
   Christoph Reimann      : Effective Core Potentials
   Marius Retegan         : Local ZFS, SOC
   Christoph Riplinger    : Optimizer, TS searches, QM/MM, DLPNO-CCSD(T), (RO)-DLPNO pert. Triples
   Tobias Risthaus        : Range-separated hybrids, TD-DFT gradient, RPA, STAB
   Michael Roemelt        : Restricted open shell CIS
   Masaaki Saitow         : Open-shell DLPNO
   Barbara Sandhoefer     : DKH picture change effects
   Kantharuban Sivalingam : CASSCF convergence, NEVPT2, FIC-MRCI
   Georgi Stoychev        : AutoAux
   Boris Wezisla          : Elementary symmetry handling
   Frank Wennmohs         : Technical directorship


 We gratefully acknowledge several colleagues who have allowed us to
 interface, adapt or use parts of their codes:
   Stefan Grimme, W. Hujo, H. Kruse,             : VdW corrections, initial TS optimization,
                  C. Bannwarth                     DFT functionals, gCP, sTDA/sTD-DF
   Ed Valeev                                     : LibInt (2-el integral package), F12 methods
   Garnet Chan, S. Sharma, J. Yang, R. Olivares  : DMRG
   Ulf Ekstrom                                   : XCFun DFT Library
   Mihaly Kallay                                 : mrcc  (arbitrary order and MRCC methods)
   Andreas Klamt, Michael Diedenhofen            : otool_cosmo (COSMO solvation model)
   Jiri Pittner, Ondrej Demel                    : Mk-CCSD
   Frank Weinhold                                : gennbo (NPA and NBO analysis)
   Christopher J. Cramer and Donald G. Truhlar   : smd solvation model


 Your calculation uses the libint2 library for the computation of 2-el integrals
 For citations please refer to: http://libint.valeyev.net

 This ORCA versions uses:
   CBLAS   interface :  Fast vector & matrix operations
   LAPACKE interface :  Fast linear algebra routines
   SCALAPACK package :  Parallel linear algebra routines




*****************************************
The coordinations will be read from file: etanal.xyz
*****************************************


Your calculation utilizes the basis: 6-31G(d,p)
   H-He, Li-Ne : W. J. Hehre, R. Ditchfield and J.A. Pople, J. Chem. Phys. 56, 2257 (1972).
                 Note: He and Ne are unpublished basis sets taken from the Gaussian program.
                 Note: Li and B from J. D. Dill and J. A. Pople, J. Chem. Phys. 62, 2921 (1975).
   Na - Ar     : M. M. Francl, W. J. Pietro, W. J. Hehre, J. S. Binkley, M. S. Gordon, 
                 D. J. DeFrees and J. A. Pople, J. Chem. Phys. 77, 3654 (1982).
   K - Zn      : V. A. Rassolov, J. A. Pople, M. A. Ratner, and T. L. Windus, J. Chem. Phys. 109, 1223 (1998).

================================================================================
                                        WARNINGS
                       Please study these warnings very carefully!
================================================================================

Warning: TCutStore was < 0. Adjusted to Thresh (uncritical)

INFO   : the flag for use of LIBINT has been found!

================================================================================
                                       INPUT FILE
================================================================================
NAME = etanal.inp
|  1> ! B3LYP 6-31G(d,p) Freq
|  2> 
|  3> * xyzfile 0 1 etanal.xyz
|  4> 
|  5>                          ****END OF INPUT****
================================================================================

                       ****************************
                       * Single Point Calculation *
                       ****************************

---------------------------------
CARTESIAN COORDINATES (ANGSTROEM)
---------------------------------
  C     -4.700350   -0.428460   -0.002920
  C     -3.698450    0.681690   -0.083480
  H     -5.706770   -0.004960   -0.037420
  H     -4.560580   -0.968730    0.936230
  H     -4.566250   -1.116170   -0.841510
  O     -2.862340    0.774300   -0.976080
  H     -3.752720    1.432100    0.723170

----------------------------
CARTESIAN COORDINATES (A.U.)
----------------------------
  NO LB      ZA    FRAG     MASS         X           Y           Z
   0 C     6.0000    0    12.011   -8.882374   -0.809672   -0.005518
   1 C     6.0000    0    12.011   -6.989058    1.288207   -0.157754
   2 H     1.0000    0     1.008  -10.784232   -0.009373   -0.070714
   3 H     1.0000    0     1.008   -8.618247   -1.830634    1.769218
   4 H     1.0000    0     1.008   -8.628962   -2.109256   -1.590223
   5 O     8.0000    0    15.999   -5.409039    1.463215   -1.844524
   6 H     1.0000    0     1.008   -7.091613    2.706277    1.366593

--------------------------------
INTERNAL COORDINATES (ANGSTROEM)
--------------------------------
 C      0   0   0     0.000000000000     0.00000000     0.00000000
 C      1   0   0     1.497573552818     0.00000000     0.00000000
 H      1   2   0     1.092439342206   109.10271167     0.00000000
 H      1   2   3     1.092442240258   109.10261264   240.19330631
 H      1   2   3     1.092776757714   110.06816114   120.09687919
 O      2   1   3     1.226536303662   123.44779492   239.90311652
 H      2   1   3     1.103061477661   115.59775373    59.90226095

---------------------------
INTERNAL COORDINATES (A.U.)
---------------------------
 C      0   0   0     0.000000000000     0.00000000     0.00000000
 C      1   0   0     2.830003880230     0.00000000     0.00000000
 H      1   2   0     2.064411174691   109.10271167     0.00000000
 H      1   2   3     2.064416651215   109.10261264   240.19330631
 H      1   2   3     2.065048797594   110.06816114   120.09687919
 O      2   1   3     2.317817707233   123.44779492   239.90311652
 H      2   1   3     2.084484101658   115.59775373    59.90226095

---------------------
BASIS SET INFORMATION
---------------------
There are 3 groups of distinct atoms

 Group   1 Type C   : 10s4p1d contracted to 3s2p1d pattern {631/31/1}
 Group   2 Type H   : 4s1p contracted to 2s1p pattern {31/1}
 Group   3 Type O   : 10s4p1d contracted to 3s2p1d pattern {631/31/1}

Atom   0C    basis set group =>   1
Atom   1C    basis set group =>   1
Atom   2H    basis set group =>   2
Atom   3H    basis set group =>   2
Atom   4H    basis set group =>   2
Atom   5O    basis set group =>   3
Atom   6H    basis set group =>   2
------------------------------------------------------------------------------
                           ORCA GTO INTEGRAL CALCULATION
------------------------------------------------------------------------------

                         BASIS SET STATISTICS AND STARTUP INFO

 # of primitive gaussian shells          ...   65
 # of primitive gaussian functions       ...  109
 # of contracted shells                  ...   30
 # of contracted basis functions         ...   62
 Highest angular momentum                ...    2
 Maximum contraction depth               ...    6
 Integral package used                   ... LIBINT
 Integral threshhold            Thresh   ...  1.000e-10
 Primitive cut-off              TCut     ...  1.000e-11


------------------------------ INTEGRAL EVALUATION ----------------------------


 * One electron integrals 
 Pre-screening matrix                    ... done
 Shell pair data                         ... done (   0.000 sec)

-------------------------------------------------------------------------------
                                 ORCA SCF
-------------------------------------------------------------------------------

------------
SCF SETTINGS
------------
Hamiltonian:
 Density Functional     Method          .... DFT(GTOs)
 Exchange Functional    Exchange        .... B88
   X-Alpha parameter    XAlpha          ....  0.666667
   Becke's b parameter  XBeta           ....  0.004200
 Correlation Functional Correlation     .... LYP
 LDA part of GGA corr.  LDAOpt          .... VWN-5
 Gradients option       PostSCFGGA      .... off
 Hybrid DFT is turned on
   Fraction HF Exchange ScalHFX         ....  0.200000
   Scaling of DF-GGA-X  ScalDFX         ....  0.720000
   Scaling of DF-GGA-C  ScalDFC         ....  0.810000
   Scaling of DF-LDA-C  ScalLDAC        ....  1.000000
   Perturbative correction              ....  0.000000
   NL short-range parameter             ....  4.800000


General Settings:
 Integral files         IntName         .... etanal
 Hartree-Fock type      HFTyp           .... RHF
 Total Charge           Charge          ....    0
 Multiplicity           Mult            ....    1
 Number of Electrons    NEL             ....   24
 Basis Dimension        Dim             ....   62
 Nuclear Repulsion      ENuc            ....     69.4743602866 Eh

Convergence Acceleration:
 DIIS                   CNVDIIS         .... on
   Start iteration      DIISMaxIt       ....    12
   Startup error        DIISStart       ....  0.200000
   # of expansion vecs  DIISMaxEq       ....     5
   Bias factor          DIISBfac        ....   1.050
   Max. coefficient     DIISMaxC        ....  10.000
 Newton-Raphson         CNVNR           .... off
 SOSCF                  CNVSOSCF        .... on
   Start iteration      SOSCFMaxIt      ....   150
   Startup grad/error   SOSCFStart      ....  0.003300
 Level Shifting         CNVShift        .... on
   Level shift para.    LevelShift      ....    0.2500
   Turn off err/grad.   ShiftErr        ....    0.0010
 Zerner damping         CNVZerner       .... off
 Static damping         CNVDamp         .... on
   Fraction old density DampFac         ....    0.7000
   Max. Damping (<1)    DampMax         ....    0.9800
   Min. Damping (>=0)   DampMin         ....    0.0000
   Turn off err/grad.   DampErr         ....    0.1000
 Fernandez-Rico         CNVRico         .... off

SCF Procedure:
 Maximum # iterations   MaxIter         ....   125
 SCF integral mode      SCFMode         .... Direct
   Integral package                     .... LIBINT
 Reset frequeny         DirectResetFreq ....    20
 Integral Threshold     Thresh          ....  1.000e-10 Eh
 Primitive CutOff       TCut            ....  1.000e-11 Eh

Convergence Tolerance:
 Convergence Check Mode ConvCheckMode   .... Total+1el-Energy
 Convergence forced     ConvForced      .... 0
 Energy Change          TolE            ....  1.000e-06 Eh
 1-El. energy change                    ....  1.000e-03 Eh
 Orbital Gradient       TolG            ....  5.000e-05
 Orbital Rotation angle TolX            ....  5.000e-05
 DIIS Error             TolErr          ....  1.000e-06


Diagonalization of the overlap matrix:
Smallest eigenvalue                        ... 7.064e-03
Time for diagonalization                   ...    0.002 sec
Threshold for overlap eigenvalues          ... 1.000e-08
Number of eigenvalues below threshold      ... 0
Time for construction of square roots      ...    0.001 sec
Total time needed                          ...    0.003 sec

-------------------
DFT GRID GENERATION
-------------------

General Integration Accuracy     IntAcc      ...  4.340
Radial Grid Type                 RadialGrid  ... Gauss-Chebyshev
Angular Grid (max. acc.)         AngularGrid ... Lebedev-110
Angular grid pruning method      GridPruning ... 3 (G Style)
Weight generation scheme         WeightScheme... Becke
Basis function cutoff            BFCut       ...    1.0000e-10
Integration weight cutoff        WCut        ...    1.0000e-14
Grids for H and He will be reduced by one unit

# of grid points (after initial pruning)     ...   8204 (   0.0 sec)
# of grid points (after weights+screening)   ...   7925 (   0.0 sec)
nearest neighbour list constructed           ...    0.0 sec
Grid point re-assignment to atoms done       ...    0.0 sec
Grid point division into batches done        ...    0.0 sec
Reduced shell lists constructed in    0.1 sec

Total number of grid points                  ...     7925
Total number of batches                      ...      128
Average number of points per batch           ...       61
Average number of grid points per atom       ...     1132
Average number of shells per batch           ...    24.79 (82.64%)
Average number of basis functions per batch  ...    51.71 (83.40%)
Average number of large shells per batch     ...    21.30 (85.93%)
Average number of large basis fcns per batch ...    44.39 (85.85%)
Maximum spatial batch extension              ...  25.60, 23.45, 21.59 au
Average spatial batch extension              ...   4.86,  4.83,  4.20 au

Time for grid setup =    0.092 sec

------------------------------
INITIAL GUESS: MODEL POTENTIAL
------------------------------
Loading Hartree-Fock densities                     ... done
Calculating cut-offs                               ... done
Setting up the integral package                    ... done
Initializing the effective Hamiltonian             ... done
Starting the Coulomb interaction                   ... done (   0.0 sec)
Reading the grid                                   ... done
Mapping shells                                     ... done
Starting the XC term evaluation                    ... done (   0.1 sec)
  promolecular density results
     # of electrons  =     23.999837132
     EX              =    -19.622575301
     EC              =     -0.792143137
     EX+EC           =    -20.414718438
Transforming the Hamiltonian                       ... done (   0.0 sec)
Diagonalizing the Hamiltonian                      ... done (   0.0 sec)
Back transforming the eigenvectors                 ... done (   0.0 sec)
Now organizing SCF variables                       ... done
                      ------------------
                      INITIAL GUESS DONE (   0.3 sec)
                      ------------------
--------------
SCF ITERATIONS
--------------
ITER       Energy         Delta-E        Max-DP      RMS-DP      [F,P]     Damp
               ***  Starting incremental Fock matrix formation  ***
  0   -153.6148156589   0.000000000000 0.08669546  0.00476875  0.2441737 0.7000
  1   -153.6779897790  -0.063174120118 0.04552000  0.00304818  0.0916464 0.7000
                               ***Turning on DIIS***
  2   -153.6987811736  -0.020791394612 0.06888600  0.00422622  0.0398730 0.0000
  3   -153.7357515145  -0.036970340903 0.03202362  0.00222383  0.0477903 0.0000
  4   -153.7424649881  -0.006713473600 0.01005991  0.00066177  0.0189134 0.0000
                      *** Initiating the SOSCF procedure ***
                           *** Shutting down DIIS ***
                      *** Re-Reading the Fockian *** 
                      *** Removing any level shift *** 
ITER      Energy       Delta-E        Grad      Rot      Max-DP    RMS-DP
  5   -153.74335278  -0.0008877928  0.000761  0.000761  0.004188  0.000189
               *** Restarting incremental Fock matrix formation ***
  6   -153.74337649  -0.0000237103  0.000367  0.000947  0.002066  0.000117
  7   -153.74337551   0.0000009824  0.000694  0.000802  0.000839  0.000051
  8   -153.74337891  -0.0000033966  0.000219  0.000353  0.000570  0.000037
  9   -153.74337870   0.0000002102  0.000196  0.000156  0.000324  0.000018
                 **** Energy Check signals convergence ****
              ***Rediagonalizing the Fockian in SOSCF/NRSCF***

               *****************************************************
               *                     SUCCESS                       *
               *           SCF CONVERGED AFTER  10 CYCLES          *
               *****************************************************

Setting up the final grid:

General Integration Accuracy     IntAcc      ...  4.670
Radial Grid Type                 RadialGrid  ... Gauss-Chebyshev
Angular Grid (max. acc.)         AngularGrid ... Lebedev-302
Angular grid pruning method      GridPruning ... 3 (G Style)
Weight generation scheme         WeightScheme... Becke
Basis function cutoff            BFCut       ...    1.0000e-10
Integration weight cutoff        WCut        ...    1.0000e-14
Grids for H and He will be reduced by one unit

# of grid points (after initial pruning)     ...  32212 (   0.0 sec)
# of grid points (after weights+screening)   ...  30993 (   0.0 sec)
nearest neighbour list constructed           ...    0.0 sec
Grid point re-assignment to atoms done       ...    0.0 sec
Grid point division into batches done        ...    0.2 sec
Reduced shell lists constructed in    0.4 sec

Total number of grid points                  ...    30993
Total number of batches                      ...      488
Average number of points per batch           ...       63
Average number of grid points per atom       ...     4428
Average number of shells per batch           ...    22.63 (75.43%)
Average number of basis functions per batch  ...    47.20 (76.13%)
Average number of large shells per batch     ...    19.03 (84.08%)
Average number of large basis fcns per batch ...    39.33 (83.32%)
Maximum spatial batch extension              ...  17.94, 20.64, 18.99 au
Average spatial batch extension              ...   3.08,  3.05,  3.03 au

Final grid set up in    0.5 sec
Final integration                            ... done (   0.4 sec)
Change in XC energy                          ...    -0.000053249
Integrated number of electrons               ...    23.999957546
Previous integrated no of electrons          ...    24.001211651

----------------
TOTAL SCF ENERGY
----------------

Total Energy       :         -153.74343249 Eh           -4183.57149 eV

Components:
Nuclear Repulsion  :           69.47436029 Eh            1890.49345 eV
Electronic Energy  :         -223.21779277 Eh           -6074.06494 eV
One Electron Energy:         -345.74061044 Eh           -9408.08031 eV
Two Electron Energy:          122.52281767 Eh            3334.01537 eV

Virial components:
Potential Energy   :         -306.49880408 Eh           -8340.25647 eV
Kinetic Energy     :          152.75537160 Eh            4156.68498 eV
Virial Ratio       :            2.00646826


DFT components:
N(Alpha)           :       11.999978773122 electrons
N(Beta)            :       11.999978773122 electrons
N(Total)           :       23.999957546244 electrons
E(X)               :      -15.883146824392 Eh       
E(C)               :       -0.942875147999 Eh       
E(XC)              :      -16.826021972390 Eh       

---------------
SCF CONVERGENCE
---------------

  Last Energy change         ...   -5.4209e-07  Tolerance :   1.0000e-06
  Last MAX-Density change    ...    3.1554e-05  Tolerance :   1.0000e-05
  Last RMS-Density change    ...    1.4594e-06  Tolerance :   1.0000e-06
  Last Orbital Gradient      ...    4.4114e-06  Tolerance :   5.0000e-05
  Last Orbital Rotation      ...    8.5902e-06  Tolerance :   5.0000e-05

             **** THE GBW FILE WAS UPDATED (etanal.gbw) ****
             **** DENSITY FILE WAS UPDATED (etanal.scfp.tmp) ****
             **** ENERGY FILE WAS UPDATED (etanal.en.tmp) ****
----------------
ORBITAL ENERGIES
----------------

  NO   OCC          E(Eh)            E(eV) 
   0   2.0000     -19.141693      -520.8720 
   1   2.0000     -10.273156      -279.5468 
   2   2.0000     -10.189200      -277.2622 
   3   2.0000      -1.032696       -28.1011 
   4   2.0000      -0.752929       -20.4882 
   5   2.0000      -0.579895       -15.7797 
   6   2.0000      -0.470798       -12.8111 
   7   2.0000      -0.445410       -12.1202 
   8   2.0000      -0.427031       -11.6201 
   9   2.0000      -0.391501       -10.6533 
  10   2.0000      -0.356261        -9.6944 
  11   2.0000      -0.250647        -6.8205 
  12   0.0000      -0.021780        -0.5927 
  13   0.0000       0.110023         2.9939 
  14   0.0000       0.136011         3.7010 
  15   0.0000       0.154794         4.2122 
  16   0.0000       0.158323         4.3082 
  17   0.0000       0.257182         6.9983 
  18   0.0000       0.284772         7.7490 
  19   0.0000       0.531154        14.4534 
  20   0.0000       0.539199        14.6723 
  21   0.0000       0.578860        15.7516 
  22   0.0000       0.591264        16.0891 
  23   0.0000       0.656381        17.8610 
  24   0.0000       0.691868        18.8267 
  25   0.0000       0.748364        20.3640 
  26   0.0000       0.835763        22.7423 
  27   0.0000       0.850248        23.1364 
  28   0.0000       0.882924        24.0256 
  29   0.0000       0.914453        24.8835 
  30   0.0000       0.917855        24.9761 
  31   0.0000       0.989975        26.9386 
  32   0.0000       1.082298        29.4508 
  33   0.0000       1.257319        34.2134 
  34   0.0000       1.294303        35.2198 
  35   0.0000       1.461563        39.7711 
  36   0.0000       1.532871        41.7116 
  37   0.0000       1.639865        44.6230 
  38   0.0000       1.722135        46.8617 
  39   0.0000       1.779779        48.4302 
  40   0.0000       1.811640        49.2972 
  41   0.0000       1.907917        51.9171 
  42   0.0000       1.976210        53.7754 
  43   0.0000       2.019974        54.9663 
  44   0.0000       2.024441        55.0878 
  45   0.0000       2.044499        55.6337 
  46   0.0000       2.094119        56.9839 
  47   0.0000       2.244271        61.0697 
  48   0.0000       2.287357        62.2421 
  49   0.0000       2.348489        63.9056 
  50   0.0000       2.543918        69.2235 
  51   0.0000       2.577803        70.1456 
  52   0.0000       2.621608        71.3376 
  53   0.0000       2.669559        72.6424 
  54   0.0000       2.818808        76.7037 
  55   0.0000       2.873798        78.2000 
  56   0.0000       2.947023        80.1926 
  57   0.0000       2.971866        80.8686 
  58   0.0000       3.194807        86.9351 
  59   0.0000       3.396211        92.4156 
  60   0.0000       3.405020        92.6553 
  61   0.0000       3.456177        94.0474 

                    ********************************
                    * MULLIKEN POPULATION ANALYSIS *
                    ********************************

-----------------------
MULLIKEN ATOMIC CHARGES
-----------------------
   0 C :   -0.371814
   1 C :    0.270970
   2 H :    0.129003
   3 H :    0.129967
   4 H :    0.140564
   5 O :   -0.367765
   6 H :    0.069074
Sum of atomic charges:   -0.0000000

--------------------------------
MULLIKEN REDUCED ORBITAL CHARGES
--------------------------------
  0 C s       :     3.255975  s :     3.255975
      pz      :     1.070310  p :     3.086984
      px      :     1.014903
      py      :     1.001771
      dz2     :     0.006832  d :     0.028855
      dxz     :     0.001226
      dyz     :     0.008435
      dx2y2   :     0.004458
      dxy     :     0.007904
  1 C s       :     3.142782  s :     3.142782
      pz      :     0.830994  p :     2.504464
      px      :     0.793411
      py      :     0.880059
      dz2     :     0.018384  d :     0.081784
      dxz     :     0.014832
      dyz     :     0.020120
      dx2y2   :     0.012326
      dxy     :     0.016122
  2 H s       :     0.859174  s :     0.859174
      pz      :     0.002441  p :     0.011823
      px      :     0.006492
      py      :     0.002890
  3 H s       :     0.858236  s :     0.858236
      pz      :     0.005674  p :     0.011797
      px      :     0.002517
      py      :     0.003606
  4 H s       :     0.848270  s :     0.848270
      pz      :     0.005103  p :     0.011166
      px      :     0.002165
      py      :     0.003899
  5 O s       :     3.867304  s :     3.867304
      pz      :     1.412018  p :     4.473374
      px      :     1.389912
      py      :     1.671444
      dz2     :     0.007694  d :     0.027087
      dxz     :     0.007114
      dyz     :     0.004428
      dx2y2   :     0.004300
      dxy     :     0.003552
  6 H s       :     0.920212  s :     0.920212
      pz      :     0.004700  p :     0.010713
      px      :     0.001460
      py      :     0.004553


                     *******************************
                     * LOEWDIN POPULATION ANALYSIS *
                     *******************************

----------------------
LOEWDIN ATOMIC CHARGES
----------------------
   0 C :   -0.231239
   1 C :    0.115577
   2 H :    0.091678
   3 H :    0.092033
   4 H :    0.089510
   5 O :   -0.195520
   6 H :    0.037962

-------------------------------
LOEWDIN REDUCED ORBITAL CHARGES
-------------------------------
  0 C s       :     2.927753  s :     2.927753
      pz      :     1.098946  p :     3.242987
      px      :     1.071786
      py      :     1.072255
      dz2     :     0.013577  d :     0.060499
      dxz     :     0.002182
      dyz     :     0.016753
      dx2y2   :     0.009660
      dxy     :     0.018327
  1 C s       :     2.923051  s :     2.923051
      pz      :     0.931117  p :     2.772097
      px      :     0.891302
      py      :     0.949679
      dz2     :     0.042698  d :     0.189275
      dxz     :     0.036668
      dyz     :     0.043487
      dx2y2   :     0.025478
      dxy     :     0.040944
  2 H s       :     0.868611  s :     0.868611
      pz      :     0.006985  p :     0.039712
      px      :     0.023279
      py      :     0.009448
  3 H s       :     0.868279  s :     0.868279
      pz      :     0.020532  p :     0.039688
      px      :     0.007336
      py      :     0.011820
  4 H s       :     0.870941  s :     0.870941
      pz      :     0.018459  p :     0.039548
      px      :     0.006511
      py      :     0.014578
  5 O s       :     3.576210  s :     3.576210
      pz      :     1.471764  p :     4.564765
      px      :     1.432041
      py      :     1.660960
      dz2     :     0.012741  d :     0.054546
      dxz     :     0.019423
      dyz     :     0.007862
      dx2y2   :     0.007914
      dxy     :     0.006606
  6 H s       :     0.922937  s :     0.922937
      pz      :     0.017724  p :     0.039101
      px      :     0.004550
      py      :     0.016827


                      *****************************
                      * MAYER POPULATION ANALYSIS *
                      *****************************

  NA   - Mulliken gross atomic population
  ZA   - Total nuclear charge
  QA   - Mulliken gross atomic charge
  VA   - Mayer's total valence
  BVA  - Mayer's bonded valence
  FA   - Mayer's free valence

  ATOM       NA         ZA         QA         VA         BVA        FA
  0 C      6.3718     6.0000    -0.3718     3.8126     3.8126     0.0000
  1 C      5.7290     6.0000     0.2710     3.8801     3.8801     0.0000
  2 H      0.8710     1.0000     0.1290     0.9535     0.9535    -0.0000
  3 H      0.8700     1.0000     0.1300     0.9538     0.9538     0.0000
  4 H      0.8594     1.0000     0.1406     0.9606     0.9606     0.0000
  5 O      8.3678     8.0000    -0.3678     2.0980     2.0980    -0.0000
  6 H      0.9309     1.0000     0.0691     0.9420     0.9420     0.0000

  Mayer bond orders larger than 0.1
B(  0-C ,  1-C ) :   0.9721 B(  0-C ,  2-H ) :   0.9441 B(  0-C ,  3-H ) :   0.9440 
B(  0-C ,  4-H ) :   0.9568 B(  1-C ,  5-O ) :   2.0042 B(  1-C ,  6-H ) :   0.9021 


-------
TIMINGS
-------

Total SCF time: 0 days 0 hours 0 min 8 sec 

Total time                  ....       8.298 sec
Sum of individual times     ....       8.280 sec  ( 99.8%)

Fock matrix formation       ....       7.450 sec  ( 89.8%)
  XC integration            ....       1.393 sec  ( 18.7% of F)
    Basis function eval.    ....       0.634 sec  ( 45.5% of XC)
    Density eval.           ....       0.252 sec  ( 18.1% of XC)
    XC-Functional eval.     ....       0.200 sec  ( 14.4% of XC)
    XC-Potential eval.      ....       0.262 sec  ( 18.8% of XC)
Diagonalization             ....       0.010 sec  (  0.1%)
Density matrix formation    ....       0.001 sec  (  0.0%)
Population analysis         ....       0.002 sec  (  0.0%)
Initial guess               ....       0.257 sec  (  3.1%)
Orbital Transformation      ....       0.000 sec  (  0.0%)
Orbital Orthonormalization  ....       0.000 sec  (  0.0%)
DIIS solution               ....       0.003 sec  (  0.0%)
SOSCF solution              ....       0.007 sec  (  0.1%)
Grid generation             ....       0.551 sec  (  6.6%)

-------------------------   --------------------
FINAL SINGLE POINT ENERGY      -153.743432485826
-------------------------   --------------------


                            ***************************************
                            *     ORCA property calculations      *
                            ***************************************

                                    ---------------------
                                    Active property flags
                                    ---------------------
   (+) Dipole Moment


------------------------------------------------------------------------------
                       ORCA ELECTRIC PROPERTIES CALCULATION
------------------------------------------------------------------------------

Dipole Moment Calculation                       ... on
Quadrupole Moment Calculation                   ... off
Polarizability Calculation                      ... off
GBWName                                         ... etanal.gbw
Electron density file                           ... etanal.scfp.tmp
The origin for moment calculation is the CENTER OF MASS  = (-7.095431,  0.633435 -0.680656)

-------------
DIPOLE MOMENT
-------------
                                X             Y             Z
Electronic contribution:      2.55850       1.63181      -1.39574
Nuclear contribution   :     -3.33361      -1.86851       2.07479
                        -----------------------------------------
Total Dipole Moment    :     -0.77512      -0.23670       0.67905
                        -----------------------------------------
Magnitude (a.u.)       :      1.05732
Magnitude (Debye)      :      2.68751


-------------------------------------------------------------------------------
                               ORCA SCF HESSIAN
-------------------------------------------------------------------------------

Hessian of the Kohn-Sham DFT energy:
Kohn-Sham wavefunction type                      ... RKS
Hartree-Fock exchange scaling                    ...    0.200
Number of operators                              ...    1
Number of atoms                                  ...    7
Basis set dimensions                             ...   62
Integral neglect threshold                       ... 1.0e-10
Integral primitive cutoff                        ... 1.0e-11

Setting up DFT Hessian calculations              ... 
Electron density on the grid                     ... found on disk
Electron density on the final grid               ... found on disk
Building xc-kernel on the grid                   ... done   (      0.0 sec)
Building xc-kernel on the final grid             ... done   (      0.1 sec)
                                                     done   (      0.2 sec)

Nuclear repulsion Hessian                        ... done   (      0.0 sec)

----------------------------------------------
Forming right-hand sides of CP-SCF equations     ...
----------------------------------------------
One electron integral derivatives                ... done   (      0.2 sec)
Transforming the overlap derivative matrices     ... done   (      0.0 sec)
Making the Q(x) pseudodensities                  ... done   (      0.0 sec)
Adding the E*S(x)*S(y) terms to the Hessian      ... done   (      0.0 sec)
Calculating energy weighted overlap derivatives  ... done   (      0.0 sec)
Two electron integral derivatives                ... done   (      2.2 sec)
Exchange-correlation integral derivatives        ... done   (      8.4 sec)
tr(F(y)Q(x)) contribution to the Hessian         ... done   (      0.0 sec)
Response fock operator R(S(x))                   ... done   (      2.4 sec)
XC Response fock operator R(S(x))                ... done   (      2.9 sec)
tr(F(y)S(x)) contribution to the Hessian         ... done   (      0.0 sec)
Transforming and finalizing RHSs                 ... done   (      0.0 sec)

----------------------------------------------
Solving the CP-SCF equations                     ...
----------------------------------------------
     CP-SCF ITERATION   0: 
     CP-SCF ITERATION   1:      0.002573128807
     CP-SCF ITERATION   2:      0.000186548299
     CP-SCF ITERATION   3:      0.000022492857
     CP-SCF ITERATION   4:      0.000001250534
     CP-SCF ITERATION   5:      0.000000984938

                                                 ... done   (     25.8 sec)
Forming perturbed density Hessian contributions  ... done   (      0.0 sec)
Making the perturbed densities                   ... done   (      0.0 sec)
2nd integral derivative contribs                 ... done   (     13.8 sec)
Exchange-correlation Hessian                     ... done   (     11.3 sec)
Dipol derivatives                                ... done   (      0.3 sec)

Total SCF Hessian time: 0 days 0 hours 1 min 7 sec 

Writing the Hessian file to the disk             ... done


-----------------------
VIBRATIONAL FREQUENCIES
-----------------------

   0:         0.00 cm**-1
   1:         0.00 cm**-1
   2:         0.00 cm**-1
   3:         0.00 cm**-1
   4:         0.00 cm**-1
   5:         0.00 cm**-1
   6:        78.93 cm**-1
   7:       511.51 cm**-1
   8:       755.39 cm**-1
   9:       902.59 cm**-1
  10:      1130.58 cm**-1
  11:      1137.34 cm**-1
  12:      1375.38 cm**-1
  13:      1410.41 cm**-1
  14:      1456.94 cm**-1
  15:      1488.06 cm**-1
  16:      1759.20 cm**-1
  17:      2994.20 cm**-1
  18:      3063.95 cm**-1
  19:      3150.39 cm**-1
  20:      3157.52 cm**-1


------------
NORMAL MODES
------------

These modes are the cartesian displacements weighted by the diagonal matrix
M(i,i)=1/sqrt(m[i]) where m[i] is the mass of the displaced atom
Thus, these vectors are normalized but *not* orthogonal

                  0          1          2          3          4          5    
      0       0.000000   0.000000   0.000000   0.000000   0.000000   0.000000
      1       0.000000   0.000000   0.000000   0.000000   0.000000   0.000000
      2       0.000000   0.000000   0.000000   0.000000   0.000000   0.000000
      3       0.000000   0.000000   0.000000   0.000000   0.000000   0.000000
      4       0.000000   0.000000   0.000000   0.000000   0.000000   0.000000
      5       0.000000   0.000000   0.000000   0.000000   0.000000   0.000000
      6       0.000000   0.000000   0.000000   0.000000   0.000000   0.000000
      7       0.000000   0.000000   0.000000   0.000000   0.000000   0.000000
      8       0.000000   0.000000   0.000000   0.000000   0.000000   0.000000
      9       0.000000   0.000000   0.000000   0.000000   0.000000   0.000000
     10       0.000000   0.000000   0.000000   0.000000   0.000000   0.000000
     11       0.000000   0.000000   0.000000   0.000000   0.000000   0.000000
     12       0.000000   0.000000   0.000000   0.000000   0.000000   0.000000
     13       0.000000   0.000000   0.000000   0.000000   0.000000   0.000000
     14       0.000000   0.000000   0.000000   0.000000   0.000000   0.000000
     15       0.000000   0.000000   0.000000   0.000000   0.000000   0.000000
     16       0.000000   0.000000   0.000000   0.000000   0.000000   0.000000
     17       0.000000   0.000000   0.000000   0.000000   0.000000   0.000000
     18       0.000000   0.000000   0.000000   0.000000   0.000000   0.000000
     19       0.000000   0.000000   0.000000   0.000000   0.000000   0.000000
     20       0.000000   0.000000   0.000000   0.000000   0.000000   0.000000
                  6          7          8          9         10         11    
      0       0.000794   0.124319  -0.042356  -0.183936   0.090292   0.008041
      1      -0.000670   0.072413   0.035937  -0.108828  -0.075000   0.148647
      2       0.000805  -0.074533  -0.036383   0.108519   0.076835   0.136528
      3      -0.066196  -0.007469  -0.044758   0.077640  -0.138353  -0.091334
      4       0.055666   0.137233   0.037532   0.101858   0.115283  -0.213799
      5      -0.056181   0.144913  -0.037837   0.008955  -0.117572  -0.102444
      6      -0.048765   0.010041  -0.232447  -0.319516   0.254522  -0.061594
      7      -0.091182  -0.221680  -0.437529  -0.463680   0.344240  -0.074006
      8       0.583691  -0.264001   0.073840  -0.170511  -0.134315  -0.238246
      9       0.480826   0.031144   0.397883  -0.257031  -0.378856   0.107037
     10      -0.272340  -0.241896   0.301769  -0.514336  -0.242450  -0.212144
     11      -0.217985  -0.244710   0.064820  -0.118314   0.029548  -0.097677
     12      -0.271147   0.571167   0.161118   0.190675  -0.192880   0.589000
     13       0.228442   0.401803  -0.135089   0.157413   0.165147   0.571274
     14      -0.230608  -0.274258   0.136466  -0.066034  -0.165459  -0.123838
     15       0.051723  -0.136351   0.018563   0.085325   0.029439   0.028652
     16      -0.043517  -0.168640  -0.015985   0.042094  -0.024553   0.044959
     17       0.043904  -0.006583   0.016048  -0.058672   0.024946   0.010352
     18      -0.202567   0.159467   0.416837   0.298169   0.422631  -0.096708
     19       0.170463   0.240353  -0.350869   0.235535  -0.357230  -0.222382
     20      -0.172103   0.048822   0.354548  -0.113683   0.359692  -0.110682
                 12         13         14         15         16         17    
      0       0.089713   0.058422  -0.002193  -0.035201   0.046068  -0.002896
      1       0.110903   0.034897  -0.040407   0.028764   0.021846   0.001202
      2       0.003409  -0.034294  -0.036751  -0.030167  -0.032626   0.004622
      3      -0.000618  -0.033505  -0.013062  -0.015903  -0.456227  -0.000324
      4       0.000662  -0.075955  -0.002807   0.013292  -0.100025  -0.059235
      5       0.001555  -0.035760   0.013037  -0.013361   0.438091  -0.058245
      6      -0.186937  -0.039605  -0.034887   0.097843   0.084986   0.055220
      7      -0.520981  -0.184451  -0.053805   0.341738   0.129740  -0.030793
      8       0.107816   0.164030   0.606541   0.324280  -0.143449   0.003207
      9      -0.467535  -0.248695  -0.465953  -0.032439   0.204716  -0.013878
     10      -0.285172  -0.007466   0.317117  -0.393550   0.028468   0.027376
     11      -0.133643  -0.014151   0.243283  -0.259070  -0.041625  -0.055667
     12      -0.306725  -0.138380   0.367751   0.473382  -0.228133   0.002244
     13      -0.189840  -0.109647   0.250782  -0.392916  -0.167472  -0.003467
     14       0.178585   0.054029  -0.196225   0.397187   0.103801  -0.005968
     15       0.014191  -0.035548   0.024671   0.001372   0.283648   0.001561
     16      -0.007771   0.026157   0.002840  -0.001017   0.036513   0.000710
     17      -0.024413   0.067784  -0.026204   0.000982  -0.297819  -0.001140
     18      -0.325670   0.694005  -0.076722   0.048375   0.323686  -0.030007
     19      -0.210043   0.375622  -0.044236  -0.040237   0.361277   0.687124
     20       0.175572  -0.445032   0.044880   0.040679  -0.023118   0.715487
                  18         19         20    
      0      -0.033229   0.059476  -0.032544
      1      -0.034108  -0.050081   0.039331
      2       0.005419   0.049793   0.078383
      3       0.000556   0.000468  -0.001492
      4       0.004934  -0.000382   0.003353
      5       0.004232   0.000354   0.005097
      6       0.540416  -0.654576   0.349797
      7      -0.231893   0.266304  -0.142605
      8       0.018573  -0.008612   0.023729
      9      -0.078342  -0.074219  -0.054655
     10       0.288476   0.344308   0.201310
     11      -0.507198  -0.606342  -0.327123
     12      -0.074077   0.010006   0.101978
     13       0.339980  -0.005502  -0.524768
     14       0.423693   0.013192  -0.639261
     15       0.000154   0.000340   0.000543
     16      -0.000105  -0.000292  -0.000224
     17      -0.000293   0.000301  -0.000861
     18      -0.001128  -0.000863  -0.000171
     19      -0.047256   0.000835  -0.038997
     20      -0.045415  -0.000549  -0.038388


-----------
IR SPECTRUM
-----------

 Mode    freq (cm**-1)   T**2         TX         TY         TZ
-------------------------------------------------------------------
   6:        78.93    0.336796  ( -0.375422   0.309019  -0.316799)
   7:       511.51   12.977463  (  1.959324   2.951469   0.653718)
   8:       755.39    0.714509  (  0.556761  -0.439894   0.459369)
   9:       902.59    4.524287  (  1.476370   1.516016  -0.215205)
  10:      1130.58    0.866079  ( -0.616344   0.475212  -0.510267)
  11:      1137.34   24.390008  ( -2.454769  -4.128273  -1.149555)
  12:      1375.38   16.772463  ( -3.036186  -2.481435   1.181742)
  13:      1410.41   14.745656  ( -2.034689  -3.171452  -0.739992)
  14:      1456.94   17.482374  ( -2.229421   0.833139   3.437723)
  15:      1488.06    9.029220  (  1.902979  -1.600486   1.687109)
  16:      1759.20  142.204874  ( -8.846461  -3.043857   7.394588)
  17:      2994.20  114.235427  ( -0.923095  -8.091066  -6.922281)
  18:      3063.95    1.421007  ( -0.866347  -0.220521   0.788556)
  19:      3150.39    7.043572  (  1.695278  -1.446074   1.441691)
  20:      3157.52   10.866075  ( -0.461765   1.996924   2.581694)

The first frequency considered to be a vibration is 6
The total number of vibrations considered is 15


--------------------------
THERMOCHEMISTRY AT 298.15K
--------------------------

Temperature         ... 298.15 K
Pressure            ... 1.00 atm
Total Mass          ... 44.05 AMU

Throughout the following assumptions are being made:
  (1) The electronic state is orbitally nondegenerate
  (2) There are no thermally accessible electronically excited states
  (3) Hindered rotations indicated by low frequency modes are not
      treated as such but are treated as vibrations and this may
      cause some error
  (4) All equations used are the standard statistical mechanics
      equations for an ideal gas
  (5) All vibrations are strictly harmonic

freq.      78.93  E(vib)   ...       0.49 
freq.     511.51  E(vib)   ...       0.14 
freq.     755.39  E(vib)   ...       0.06 
freq.     902.59  E(vib)   ...       0.03 
freq.    1130.58  E(vib)   ...       0.01 
freq.    1137.34  E(vib)   ...       0.01 
freq.    1375.38  E(vib)   ...       0.01 
freq.    1410.41  E(vib)   ...       0.00 
freq.    1456.94  E(vib)   ...       0.00 
freq.    1488.06  E(vib)   ...       0.00 
freq.    1759.20  E(vib)   ...       0.00 
freq.    2994.20  E(vib)   ...       0.00 
freq.    3063.95  E(vib)   ...       0.00 
freq.    3150.39  E(vib)   ...       0.00 
freq.    3157.52  E(vib)   ...       0.00 

------------
INNER ENERGY
------------

The inner energy is: U= E(el) + E(ZPE) + E(vib) + E(rot) + E(trans)
    E(el)   - is the total energy from the electronic structure calculation
              = E(kin-el) + E(nuc-el) + E(el-el) + E(nuc-nuc)
    E(ZPE)  - the the zero temperature vibrational energy from the frequency calculation
    E(vib)  - the the finite temperature correction to E(ZPE) due to population
              of excited vibrational states
    E(rot)  - is the rotational thermal energy
    E(trans)- is the translational thermal energy

Summary of contributions to the inner energy U:
Electronic energy                ...   -153.74343249 Eh
Zero point energy                ...      0.05552441 Eh      34.84 kcal/mol
Thermal vibrational correction   ...      0.00120898 Eh       0.76 kcal/mol
Thermal rotational correction    ...      0.00141627 Eh       0.89 kcal/mol
Thermal translational correction ...      0.00141627 Eh       0.89 kcal/mol
-----------------------------------------------------------------------
Total thermal energy                   -153.68386656 Eh


Summary of corrections to the electronic energy:
(perhaps to be used in another calculation)
Total thermal correction                  0.00404152 Eh       2.54 kcal/mol
Non-thermal (ZPE) correction              0.05552441 Eh      34.84 kcal/mol
-----------------------------------------------------------------------
Total correction                          0.05956593 Eh      37.38 kcal/mol


--------
ENTHALPY
--------

The enthalpy is H = U + kB*T
                kB is Boltzmann's constant
Total free energy                 ...   -153.68386656 Eh 
Thermal Enthalpy correction       ...      0.00094421 Eh       0.59 kcal/mol
-----------------------------------------------------------------------
Total Enthalpy                    ...   -153.68292235 Eh


Vibrational entropy computed according to the QRRHO of S. Grimme
Chem.Eur.J. 2012 18 9955


-------
ENTROPY
-------

The entropy contributions are T*S = T*(S(el)+S(vib)+S(rot)+S(trans)
     S(el)   - electronic entropy
     S(vib)  - vibrational entropy
     S(rot)  - rotational entropy
     S(trans)- translational entropy
The entropies will be listed as mutliplied by the temperature to get
units of energy

Electronic entropy                ...      0.00000000 Eh      0.00 kcal/mol
Vibrational entropy               ...      0.00214469 Eh      1.35 kcal/mol
Rotational entropy                ...      0.00925450 Eh      5.81 kcal/mol
Translational entropy             ...      0.01771022 Eh     11.11 kcal/mol
-----------------------------------------------------------------------
Final entropy term                ...      0.02910940 Eh     18.27 kcal/mol


CAUTION: The rotational entropy is not quite correctly treated here
         because it includes a symmetry number that is not yet correctly
         implemented in ORCA!
For a nonlinear molecule the correct rotational entropy is:
    S(rot) = R*(ln(qrot/sn)+1.5)
    R    = 8.31441 J/mol/K = 1.987191683e-3 kcal/mol/K
    qrot = 12091.1076042
    sn is the rotational symmetry number. We have assumed 3 here
       if it is different for your molecule then you should correct
       the printed rotational entropy by manually evaluating the equation
       as given above

For convenience we print out the resulting values for sn=1 - 12:
 sn= 1  qrot/sn=   12091.1076 T*S(rot)=     6.46 kcal/mol T*S(tot)=    18.92 kcal/mol
 sn= 2  qrot/sn=    6045.5538 T*S(rot)=     6.05 kcal/mol T*S(tot)=    18.51 kcal/mol
 sn= 3  qrot/sn=    4030.3692 T*S(rot)=     5.81 kcal/mol T*S(tot)=    18.27 kcal/mol
 sn= 4  qrot/sn=    3022.7769 T*S(rot)=     5.64 kcal/mol T*S(tot)=    18.10 kcal/mol
 sn= 5  qrot/sn=    2418.2215 T*S(rot)=     5.50 kcal/mol T*S(tot)=    17.96 kcal/mol
 sn= 6  qrot/sn=    2015.1846 T*S(rot)=     5.40 kcal/mol T*S(tot)=    17.86 kcal/mol
 sn= 7  qrot/sn=    1727.3011 T*S(rot)=     5.31 kcal/mol T*S(tot)=    17.76 kcal/mol
 sn= 8  qrot/sn=    1511.3885 T*S(rot)=     5.23 kcal/mol T*S(tot)=    17.69 kcal/mol
 sn= 9  qrot/sn=    1343.4564 T*S(rot)=     5.16 kcal/mol T*S(tot)=    17.62 kcal/mol
 sn=10  qrot/sn=    1209.1108 T*S(rot)=     5.09 kcal/mol T*S(tot)=    17.55 kcal/mol
 sn=11  qrot/sn=    1099.1916 T*S(rot)=     5.04 kcal/mol T*S(tot)=    17.50 kcal/mol
 sn=12  qrot/sn=    1007.5923 T*S(rot)=     4.99 kcal/mol T*S(tot)=    17.45 kcal/mol


-------------------
GIBBS FREE ENTHALPY
-------------------

The Gibbs free enthalpy is G = H - T*S

Total enthalpy                    ...   -153.68292235 Eh 
Total entropy correction          ...     -0.02910940 Eh    -18.27 kcal/mol
-----------------------------------------------------------------------
Final Gibbs free enthalpy         ...   -153.71203175 Eh

For completeness - the Gibbs free enthalpy minus the electronic energy
G-E(el)                           ...      0.03140074 Eh     19.70 kcal/mol


Timings for individual modules:

Sum of individual times         ...       76.385 sec (=   1.273 min)
GTO integral calculation        ...        0.444 sec (=   0.007 min)   0.6 %
SCF iterations                  ...        8.332 sec (=   0.139 min)  10.9 %
Analytical frequency calculation...       67.608 sec (=   1.127 min)  88.5 %
                             ****ORCA TERMINATED NORMALLY****
TOTAL RUN TIME: 0 days 0 hours 1 minutes 16 seconds 702 msec
