
                                 *****************
                                 * O   R   C   A *
                                 *****************

           --- An Ab Initio, DFT and Semiempirical electronic structure package ---

                  #######################################################
                  #                        -***-                        #
                  #  Department of molecular theory and spectroscopy    #
                  #              Directorship: Frank Neese              #
                  # Max Planck Institute for Chemical Energy Conversion #
                  #                  D-45470 Muelheim/Ruhr              #
                  #                       Germany                       #
                  #                                                     #
                  #                  All rights reserved                #
                  #                        -***-                        #
                  #######################################################


                         Program Version 4.0.1 -  RELEASE  -


 With contributions from (in alphabetic order):
   Daniel Aravena         : Magnetic Properties
   Michael Atanasov       : Ab Initio Ligand Field Theory
   Ute Becker             : Parallelization
   Martin Brehm           : Molecular dynamics
   Dmytro Bykov           : SCF Hessian
   Vijay G. Chilkuri      : MRCI spin determinant printing
   Dipayan Datta          : RHF DLPNO-CCSD density
   Achintya Kumar Dutta   : EOM-CC, STEOM-CC
   Dmitry Ganyushin       : Spin-Orbit,Spin-Spin,Magnetic field MRCI
   Yang Guo               : DLPNO-NEVPT2, CIM, IAO-localization
   Andreas Hansen         : Spin unrestricted coupled pair/coupled cluster methods
   Lee Huntington         : MR-EOM, pCC
   Robert Izsak           : Overlap fitted RIJCOSX, COSX-SCS-MP3, EOM
   Christian Kollmar      : KDIIS, OOCD, Brueckner-CCSD(T), CCSD density
   Simone Kossmann        : Meta GGA functionals, TD-DFT gradient, OOMP2, MP2 Hessian
   Martin Krupicka        : AUTO-CI
   Dagmar Lenk            : GEPOL surface
   Dimitrios Liakos       : Extrapolation schemes; parallel MDCI
   Dimitrios Manganas     : ROCIS; embedding schemes
   Dimitrios Pantazis     : SARC Basis sets
   Taras Petrenko         : DFT Hessian,TD-DFT gradient, ASA, ECA, R-Raman, ABS, FL, XAS/XES, NRVS
   Peter Pinski           : DLPNO-MP2
   Christoph Reimann      : Effective Core Potentials
   Marius Retegan         : Local ZFS, SOC
   Christoph Riplinger    : Optimizer, TS searches, QM/MM, DLPNO-CCSD(T), (RO)-DLPNO pert. Triples
   Tobias Risthaus        : Range-separated hybrids, TD-DFT gradient, RPA, STAB
   Michael Roemelt        : Restricted open shell CIS
   Masaaki Saitow         : Open-shell DLPNO
   Barbara Sandhoefer     : DKH picture change effects
   Kantharuban Sivalingam : CASSCF convergence, NEVPT2, FIC-MRCI
   Georgi Stoychev        : AutoAux
   Boris Wezisla          : Elementary symmetry handling
   Frank Wennmohs         : Technical directorship


 We gratefully acknowledge several colleagues who have allowed us to
 interface, adapt or use parts of their codes:
   Stefan Grimme, W. Hujo, H. Kruse,             : VdW corrections, initial TS optimization,
                  C. Bannwarth                     DFT functionals, gCP, sTDA/sTD-DF
   Ed Valeev                                     : LibInt (2-el integral package), F12 methods
   Garnet Chan, S. Sharma, J. Yang, R. Olivares  : DMRG
   Ulf Ekstrom                                   : XCFun DFT Library
   Mihaly Kallay                                 : mrcc  (arbitrary order and MRCC methods)
   Andreas Klamt, Michael Diedenhofen            : otool_cosmo (COSMO solvation model)
   Jiri Pittner, Ondrej Demel                    : Mk-CCSD
   Frank Weinhold                                : gennbo (NPA and NBO analysis)
   Christopher J. Cramer and Donald G. Truhlar   : smd solvation model


 Your calculation uses the libint2 library for the computation of 2-el integrals
 For citations please refer to: http://libint.valeyev.net

 This ORCA versions uses:
   CBLAS   interface :  Fast vector & matrix operations
   LAPACKE interface :  Fast linear algebra routines
   SCALAPACK package :  Parallel linear algebra routines




*****************************************
The coordinations will be read from file: etanoico.xyz
*****************************************


Your calculation utilizes the basis: 6-31G(d,p)
   H-He, Li-Ne : W. J. Hehre, R. Ditchfield and J.A. Pople, J. Chem. Phys. 56, 2257 (1972).
                 Note: He and Ne are unpublished basis sets taken from the Gaussian program.
                 Note: Li and B from J. D. Dill and J. A. Pople, J. Chem. Phys. 62, 2921 (1975).
   Na - Ar     : M. M. Francl, W. J. Pietro, W. J. Hehre, J. S. Binkley, M. S. Gordon, 
                 D. J. DeFrees and J. A. Pople, J. Chem. Phys. 77, 3654 (1982).
   K - Zn      : V. A. Rassolov, J. A. Pople, M. A. Ratner, and T. L. Windus, J. Chem. Phys. 109, 1223 (1998).

================================================================================
                                        WARNINGS
                       Please study these warnings very carefully!
================================================================================

WARNING: Gradients needed for Numerical Frequencies
  ===> : Setting RunTyp to EnGrad
Warning: TCutStore was < 0. Adjusted to Thresh (uncritical)

WARNING: Evaluation of Numerical Hessian with CPCM may lead to unreliable numbers

INFO   : the flag for use of LIBINT has been found!

================================================================================
                                       INPUT FILE
================================================================================
NAME = etanoico.inp
|  1> ! B3LYP 6-31G(d,p) CPCM(water) NumFreq
|  2> 
|  3> * xyzfile 0 1 etanoico.xyz
|  4> 
|  5>                          ****END OF INPUT****
================================================================================

                     *******************************
                     * Energy+Gradient Calculation *
                     *******************************

---------------------------------
CARTESIAN COORDINATES (ANGSTROEM)
---------------------------------
  C     -4.696170   -0.439770   -0.019030
  C     -3.670950    0.644970   -0.152210
  H     -5.699570   -0.008820   -0.060500
  H     -4.545840   -0.978930    0.919560
  H     -4.586220   -1.145730   -0.847270
  O     -2.850420    0.710780   -1.052990
  O     -3.744890    1.559490    0.840060
  H     -4.450250    1.376070    1.488840

----------------------------
CARTESIAN COORDINATES (A.U.)
----------------------------
  NO LB      ZA    FRAG     MASS         X           Y           Z
   0 C     6.0000    0    12.011   -8.874475   -0.831045   -0.035961
   1 C     6.0000    0    12.011   -6.937090    1.218817   -0.287635
   2 H     1.0000    0     1.008  -10.770626   -0.016667   -0.114328
   3 H     1.0000    0     1.008   -8.590393   -1.849910    1.737717
   4 H     1.0000    0     1.008   -8.666700   -2.165116   -1.601108
   5 O     8.0000    0    15.999   -5.386513    1.343180   -1.989863
   6 O     8.0000    0    15.999   -7.076817    2.947009    1.587483
   7 H     1.0000    0     1.008   -8.409754    2.600395    2.813500

--------------------------------
INTERNAL COORDINATES (ANGSTROEM)
--------------------------------
 C      0   0   0     0.000000000000     0.00000000     0.00000000
 C      1   0   0     1.498490516620     0.00000000     0.00000000
 H      1   2   0     1.092817104277   109.83737541     0.00000000
 H      1   2   3     1.092814624079   109.83795949   238.02076427
 H      1   2   3     1.093823578874   109.33756655   119.00976537
 O      2   1   3     1.220247944231   124.38167061   240.98922719
 O      2   1   3     1.351448743719   112.77822654    60.98964548
 H      7   2   1     0.975751563873   113.61168544     0.00000000

---------------------------
INTERNAL COORDINATES (A.U.)
---------------------------
 C      0   0   0     0.000000000000     0.00000000     0.00000000
 C      1   0   0     2.831736690690     0.00000000     0.00000000
 H      1   2   0     2.065125041548   109.83737541     0.00000000
 H      1   2   3     2.065120354653   109.83795949   238.02076427
 H      1   2   3     2.067027002897   109.33756655   119.00976537
 O      2   1   3     2.305934430077   124.38167061   240.98922719
 O      2   1   3     2.553868009661   112.77822654    60.98964548
 H      7   2   1     1.843903230465   113.61168544     0.00000000

---------------------
BASIS SET INFORMATION
---------------------
There are 3 groups of distinct atoms

 Group   1 Type C   : 10s4p1d contracted to 3s2p1d pattern {631/31/1}
 Group   2 Type H   : 4s1p contracted to 2s1p pattern {31/1}
 Group   3 Type O   : 10s4p1d contracted to 3s2p1d pattern {631/31/1}

Atom   0C    basis set group =>   1
Atom   1C    basis set group =>   1
Atom   2H    basis set group =>   2
Atom   3H    basis set group =>   2
Atom   4H    basis set group =>   2
Atom   5O    basis set group =>   3
Atom   6O    basis set group =>   3
Atom   7H    basis set group =>   2
------------------------------------------------------------------------------
                           ORCA GTO INTEGRAL CALCULATION
------------------------------------------------------------------------------

                         BASIS SET STATISTICS AND STARTUP INFO

 # of primitive gaussian shells          ...   80
 # of primitive gaussian functions       ...  136
 # of contracted shells                  ...   36
 # of contracted basis functions         ...   76
 Highest angular momentum                ...    2
 Maximum contraction depth               ...    6
 Integral package used                   ... LIBINT
 Integral threshhold            Thresh   ...  2.500e-11
 Primitive cut-off              TCut     ...  2.500e-12


------------------------------ INTEGRAL EVALUATION ----------------------------


 * One electron integrals 
 Pre-screening matrix                    ... done
 Shell pair data                         ... done (   0.001 sec)

-------------------------------------------------------------------------------
                                 ORCA SCF
-------------------------------------------------------------------------------

------------
SCF SETTINGS
------------
Hamiltonian:
 Density Functional     Method          .... DFT(GTOs)
 Exchange Functional    Exchange        .... B88
   X-Alpha parameter    XAlpha          ....  0.666667
   Becke's b parameter  XBeta           ....  0.004200
 Correlation Functional Correlation     .... LYP
 LDA part of GGA corr.  LDAOpt          .... VWN-5
 Gradients option       PostSCFGGA      .... off
 Hybrid DFT is turned on
   Fraction HF Exchange ScalHFX         ....  0.200000
   Scaling of DF-GGA-X  ScalDFX         ....  0.720000
   Scaling of DF-GGA-C  ScalDFC         ....  0.810000
   Scaling of DF-LDA-C  ScalLDAC        ....  1.000000
   Perturbative correction              ....  0.000000
   NL short-range parameter             ....  4.800000


General Settings:
 Integral files         IntName         .... etanoico
 Hartree-Fock type      HFTyp           .... RHF
 Total Charge           Charge          ....    0
 Multiplicity           Mult            ....    1
 Number of Electrons    NEL             ....   32
 Basis Dimension        Dim             ....   76
 Nuclear Repulsion      ENuc            ....    120.7481450563 Eh

Convergence Acceleration:
 DIIS                   CNVDIIS         .... on
   Start iteration      DIISMaxIt       ....    12
   Startup error        DIISStart       ....  0.200000
   # of expansion vecs  DIISMaxEq       ....     5
   Bias factor          DIISBfac        ....   1.050
   Max. coefficient     DIISMaxC        ....  10.000
 Newton-Raphson         CNVNR           .... off
 SOSCF                  CNVSOSCF        .... on
   Start iteration      SOSCFMaxIt      ....   150
   Startup grad/error   SOSCFStart      ....  0.003300
 Level Shifting         CNVShift        .... on
   Level shift para.    LevelShift      ....    0.2500
   Turn off err/grad.   ShiftErr        ....    0.0010
 Zerner damping         CNVZerner       .... off
 Static damping         CNVDamp         .... on
   Fraction old density DampFac         ....    0.7000
   Max. Damping (<1)    DampMax         ....    0.9800
   Min. Damping (>=0)   DampMin         ....    0.0000
   Turn off err/grad.   DampErr         ....    0.1000
 Fernandez-Rico         CNVRico         .... off

SCF Procedure:
 Maximum # iterations   MaxIter         ....   125
 SCF integral mode      SCFMode         .... Direct
   Integral package                     .... LIBINT
 Reset frequeny         DirectResetFreq ....    20
 Integral Threshold     Thresh          ....  2.500e-11 Eh
 Primitive CutOff       TCut            ....  2.500e-12 Eh

Convergence Tolerance:
 Convergence Check Mode ConvCheckMode   .... Total+1el-Energy
 Convergence forced     ConvForced      .... 0
 Energy Change          TolE            ....  1.000e-08 Eh
 1-El. energy change                    ....  1.000e-05 Eh
 Orbital Gradient       TolG            ....  1.000e-05
 Orbital Rotation angle TolX            ....  1.000e-05
 DIIS Error             TolErr          ....  5.000e-07


Diagonalization of the overlap matrix:
Smallest eigenvalue                        ... 6.106e-03
Time for diagonalization                   ...    0.003 sec
Threshold for overlap eigenvalues          ... 1.000e-08
Number of eigenvalues below threshold      ... 0
Time for construction of square roots      ...    0.002 sec
Total time needed                          ...    0.005 sec

-------------------
DFT GRID GENERATION
-------------------

General Integration Accuracy     IntAcc      ...  4.340
Radial Grid Type                 RadialGrid  ... Gauss-Chebyshev
Angular Grid (max. acc.)         AngularGrid ... Lebedev-110
Angular grid pruning method      GridPruning ... 3 (G Style)
Weight generation scheme         WeightScheme... Becke
Basis function cutoff            BFCut       ...    1.0000e-11
Integration weight cutoff        WCut        ...    1.0000e-14
Grids for H and He will be reduced by one unit

# of grid points (after initial pruning)     ...   9920 (   0.0 sec)
# of grid points (after weights+screening)   ...   9516 (   0.0 sec)
nearest neighbour list constructed           ...    0.0 sec
Grid point re-assignment to atoms done       ...    0.0 sec
Grid point division into batches done        ...    0.0 sec
Reduced shell lists constructed in    0.1 sec

Total number of grid points                  ...     9516
Total number of batches                      ...      152
Average number of points per batch           ...       62
Average number of grid points per atom       ...     1190
Average number of shells per batch           ...    29.44 (81.79%)
Average number of basis functions per batch  ...    63.58 (83.65%)
Average number of large shells per batch     ...    24.85 (84.40%)
Average number of large basis fcns per batch ...    53.10 (83.52%)
Maximum spatial batch extension              ...  25.60, 23.40, 18.98 au
Average spatial batch extension              ...   4.49,  4.50,  4.16 au

Time for grid setup =    0.156 sec

------------------------------
INITIAL GUESS: MODEL POTENTIAL
------------------------------
Loading Hartree-Fock densities                     ... done
Calculating cut-offs                               ... done
Setting up the integral package                    ... done
Initializing the effective Hamiltonian             ... done
Starting the Coulomb interaction                   ... done (   0.0 sec)
Reading the grid                                   ... done
Mapping shells                                     ... done
Starting the XC term evaluation                    ... done (   0.1 sec)
  promolecular density results
     # of electrons  =     31.998165779
     EX              =    -27.851365478
     EC              =     -1.096532699
     EX+EC           =    -28.947898177
Transforming the Hamiltonian                       ... done (   0.0 sec)
Diagonalizing the Hamiltonian                      ... done (   0.0 sec)
Back transforming the eigenvectors                 ... done (   0.0 sec)
Now organizing SCF variables                       ... done
                      ------------------
                      INITIAL GUESS DONE (   0.5 sec)
                      ------------------

------------------------------------------------------------------------------
                           CPCM SOLVATION MODEL                               
------------------------------------------------------------------------------
CPCM parameters:
  Epsilon                                         ...      80.4000
  Refrac                                          ...       1.3300
  Rsolv                                           ...       1.3000
  Surface type                                    ...    GEPOL SES
  Epsilon function type                           ...         CPCM
Radii:
 Radius for C  used is    3.7795 Bohr (=   2.0000 Ang.)
 Radius for H  used is    2.4566 Bohr (=   1.3000 Ang.)
 Radius for O  used is    3.2503 Bohr (=   1.7200 Ang.)
Calculating surface                               ...        done! (  0.0s)
GEPOL surface points                              ...          275
GEPOL Volume                                      ...     494.1706
GEPOL Surface-area                                ...     332.7484
Calculating surface distance matrix               ...        done! (  0.0s)
Performing Cholesky decomposition & store         ...        done! (  0.0s)
Overall time for CPCM initialization              ...                 0.0s
--------------
SCF ITERATIONS
--------------
ITER       Energy         Delta-E        Max-DP      RMS-DP      [F,P]     Damp
               ***  Starting incremental Fock matrix formation  ***
  0   -228.8018174604   0.000000000000 0.08812817  0.00394758  0.2655493 0.7000
  1   -228.8850344835  -0.083217023093 0.04769439  0.00241758  0.1048988 0.7000
                               ***Turning on DIIS***
  2   -228.9142758186  -0.029241335028 0.06309155  0.00336627  0.0390060 0.0000
  3   -228.9634860579  -0.049210239324 0.03239912  0.00162555  0.0547668 0.0000
  4   -228.9730206877  -0.009534629777 0.00983316  0.00046093  0.0157562 0.0000
                      *** Initiating the SOSCF procedure ***
                           *** Shutting down DIIS ***
                      *** Re-Reading the Fockian *** 
                      *** Removing any level shift *** 
ITER      Energy       Delta-E        Grad      Rot      Max-DP    RMS-DP
  5   -228.97368233  -0.0006616450  0.000858  0.000858  0.002551  0.000144
               *** Restarting incremental Fock matrix formation ***
  6   -228.97370740  -0.0000250641  0.000532  0.001336  0.001572  0.000096
  7   -228.97370343   0.0000039693  0.001008  0.001155  0.001000  0.000050
  8   -228.97371162  -0.0000081904  0.000120  0.000223  0.000383  0.000019
  9   -228.97371143   0.0000001896  0.000164  0.000148  0.000223  0.000011
 10   -228.97371185  -0.0000004178  0.000017  0.000024  0.000051  0.000003
 11   -228.97371184   0.0000000040  0.000022  0.000015  0.000030  0.000001
                 **** Energy Check signals convergence ****
              ***Rediagonalizing the Fockian in SOSCF/NRSCF***

               *****************************************************
               *                     SUCCESS                       *
               *           SCF CONVERGED AFTER  12 CYCLES          *
               *****************************************************

Setting up the final grid:

General Integration Accuracy     IntAcc      ...  4.670
Radial Grid Type                 RadialGrid  ... Gauss-Chebyshev
Angular Grid (max. acc.)         AngularGrid ... Lebedev-302
Angular grid pruning method      GridPruning ... 3 (G Style)
Weight generation scheme         WeightScheme... Becke
Basis function cutoff            BFCut       ...    1.0000e-11
Integration weight cutoff        WCut        ...    1.0000e-14
Grids for H and He will be reduced by one unit

# of grid points (after initial pruning)     ...  38424 (   0.0 sec)
# of grid points (after weights+screening)   ...  36699 (   0.1 sec)
nearest neighbour list constructed           ...    0.0 sec
Grid point re-assignment to atoms done       ...    0.0 sec
Grid point division into batches done        ...    0.2 sec
Reduced shell lists constructed in    0.6 sec

Total number of grid points                  ...    36699
Total number of batches                      ...      577
Average number of points per batch           ...       63
Average number of grid points per atom       ...     4587
Average number of shells per batch           ...    26.83 (74.52%)
Average number of basis functions per batch  ...    57.81 (76.06%)
Average number of large shells per batch     ...    22.15 (82.55%)
Average number of large basis fcns per batch ...    47.17 (81.61%)
Maximum spatial batch extension              ...  17.98, 17.99, 19.25 au
Average spatial batch extension              ...   2.88,  2.98,  2.80 au

Final grid set up in    0.7 sec
Final integration                            ... done (   0.6 sec)
Change in XC energy                          ...    -0.000161944
Integrated number of electrons               ...    32.000003343
Previous integrated no of electrons          ...    32.000049911

----------------
TOTAL SCF ENERGY
----------------

Total Energy       :         -228.97387379 Eh           -6230.69587 eV

Components:
Nuclear Repulsion  :          120.74814506 Eh            3285.72407 eV
Electronic Energy  :         -349.72201885 Eh           -9516.41994 eV
One Electron Energy:         -551.51717969 Eh          -15007.54543 eV
Two Electron Energy:          201.79516084 Eh            5491.12549 eV
CPCM Dielectric    :           -0.02104999 Eh              -0.57280 eV

Virial components:
Potential Energy   :         -456.48595968 Eh          -12421.61447 eV
Kinetic Energy     :          227.51208589 Eh            6190.91860 eV
Virial Ratio       :            2.00642510


DFT components:
N(Alpha)           :       16.000001671689 electrons
N(Beta)            :       16.000001671689 electrons
N(Total)           :       32.000003343378 electrons
E(X)               :      -22.480426217085 Eh       
E(C)               :       -1.298809384140 Eh       
E(XC)              :      -23.779235601225 Eh       
CPCM Solvation Model Properties:
Surface-charge          :           -0.01142673
Charge-correction       :            0.00001189 Eh               0.00032 eV
Free-energy (cav+disp)  :            0.00310953 Eh               0.08461 eV
Corrected G(solv)       :         -228.97075238 Eh           -6230.61093 eV

---------------
SCF CONVERGENCE
---------------

  Last Energy change         ...   -7.6938e-09  Tolerance :   1.0000e-08
  Last MAX-Density change    ...    2.4242e-07  Tolerance :   1.0000e-07
  Last RMS-Density change    ...    1.8830e-08  Tolerance :   5.0000e-09
  Last Orbital Gradient      ...    1.6131e-07  Tolerance :   1.0000e-05
  Last Orbital Rotation      ...    1.2262e-07  Tolerance :   1.0000e-05

             **** THE GBW FILE WAS UPDATED (etanoico.gbw) ****
             **** DENSITY FILE WAS UPDATED (etanoico.scfp.tmp) ****
             **** ENERGY FILE WAS UPDATED (etanoico.en.tmp) ****
----------------
ORBITAL ENERGIES
----------------

  NO   OCC          E(Eh)            E(eV) 
   0   2.0000     -19.186130      -522.0811 
   1   2.0000     -19.134620      -520.6795 
   2   2.0000     -10.319809      -280.8163 
   3   2.0000     -10.181035      -277.0401 
   4   2.0000      -1.093196       -29.7474 
   5   2.0000      -1.014510       -27.6062 
   6   2.0000      -0.741597       -20.1799 
   7   2.0000      -0.615164       -16.7395 
   8   2.0000      -0.502106       -13.6630 
   9   2.0000      -0.462693       -12.5905 
  10   2.0000      -0.460536       -12.5318 
  11   2.0000      -0.408863       -11.1257 
  12   2.0000      -0.384236       -10.4556 
  13   2.0000      -0.361710        -9.8426 
  14   2.0000      -0.317201        -8.6315 
  15   2.0000      -0.275690        -7.5019 
  16   0.0000       0.011423         0.3108 
  17   0.0000       0.082031         2.2322 
  18   0.0000       0.146667         3.9910 
  19   0.0000       0.169554         4.6138 
  20   0.0000       0.187320         5.0972 
  21   0.0000       0.220132         5.9901 
  22   0.0000       0.306635         8.3440 
  23   0.0000       0.344070         9.3626 
  24   0.0000       0.531060        14.4509 
  25   0.0000       0.537931        14.6378 
  26   0.0000       0.584641        15.9089 
  27   0.0000       0.604487        16.4489 
  28   0.0000       0.626644        17.0518 
  29   0.0000       0.651234        17.7210 
  30   0.0000       0.737551        20.0698 
  31   0.0000       0.794678        21.6243 
  32   0.0000       0.845809        23.0156 
  33   0.0000       0.862409        23.4673 
  34   0.0000       0.884201        24.0603 
  35   0.0000       0.925207        25.1762 
  36   0.0000       0.930716        25.3261 
  37   0.0000       1.008791        27.4506 
  38   0.0000       1.021154        27.7870 
  39   0.0000       1.064063        28.9546 
  40   0.0000       1.150868        31.3167 
  41   0.0000       1.297837        35.3159 
  42   0.0000       1.369368        37.2624 
  43   0.0000       1.396654        38.0049 
  44   0.0000       1.482367        40.3372 
  45   0.0000       1.577669        42.9306 
  46   0.0000       1.599874        43.5348 
  47   0.0000       1.698658        46.2228 
  48   0.0000       1.724339        46.9217 
  49   0.0000       1.770592        48.1803 
  50   0.0000       1.830650        49.8145 
  51   0.0000       1.871978        50.9391 
  52   0.0000       1.873461        50.9795 
  53   0.0000       2.011497        54.7356 
  54   0.0000       2.029409        55.2230 
  55   0.0000       2.059194        56.0335 
  56   0.0000       2.063847        56.1601 
  57   0.0000       2.216711        60.3198 
  58   0.0000       2.223135        60.4946 
  59   0.0000       2.311758        62.9061 
  60   0.0000       2.363502        64.3142 
  61   0.0000       2.496642        67.9371 
  62   0.0000       2.501236        68.0621 
  63   0.0000       2.580184        70.2104 
  64   0.0000       2.603232        70.8375 
  65   0.0000       2.667670        72.5910 
  66   0.0000       2.730619        74.3039 
  67   0.0000       2.807739        76.4025 
  68   0.0000       2.898896        78.8830 
  69   0.0000       2.902632        78.9846 
  70   0.0000       3.026547        82.3565 
  71   0.0000       3.154194        85.8300 
  72   0.0000       3.209541        87.3360 
  73   0.0000       3.415655        92.9447 
  74   0.0000       3.444733        93.7360 
  75   0.0000       3.509422        95.4962 

                    ********************************
                    * MULLIKEN POPULATION ANALYSIS *
                    ********************************

-----------------------
MULLIKEN ATOMIC CHARGES
-----------------------
   0 C :   -0.424461
   1 C :    0.548226
   2 H :    0.164716
   3 H :    0.167207
   4 H :    0.143781
   5 O :   -0.483605
   6 O :   -0.491339
   7 H :    0.375476
Sum of atomic charges:   -0.0000000

--------------------------------
MULLIKEN REDUCED ORBITAL CHARGES
--------------------------------
  0 C s       :     3.269579  s :     3.269579
      pz      :     1.096518  p :     3.126258
      px      :     1.021217
      py      :     1.008522
      dz2     :     0.006769  d :     0.028624
      dxz     :     0.001317
      dyz     :     0.008103
      dx2y2   :     0.004052
      dxy     :     0.008382
  1 C s       :     2.988768  s :     2.988768
      pz      :     0.728733  p :     2.339840
      px      :     0.818070
      py      :     0.793036
      dz2     :     0.032032  d :     0.123167
      dxz     :     0.020925
      dyz     :     0.031672
      dx2y2   :     0.016949
      dxy     :     0.021589
  2 H s       :     0.823434  s :     0.823434
      pz      :     0.002380  p :     0.011850
      px      :     0.006589
      py      :     0.002881
  3 H s       :     0.820986  s :     0.820986
      pz      :     0.005818  p :     0.011807
      px      :     0.002379
      py      :     0.003611
  4 H s       :     0.844921  s :     0.844921
      pz      :     0.005038  p :     0.011298
      px      :     0.002120
      py      :     0.004140
  5 O s       :     3.842892  s :     3.842892
      pz      :     1.454295  p :     4.614667
      px      :     1.461662
      py      :     1.698711
      dz2     :     0.007548  d :     0.026047
      dxz     :     0.007212
      dyz     :     0.004074
      dx2y2   :     0.003826
      dxy     :     0.003386
  6 O s       :     3.809885  s :     3.809885
      pz      :     1.397109  p :     4.660359
      px      :     1.617626
      py      :     1.645623
      dz2     :     0.002168  d :     0.021095
      dxz     :     0.004544
      dyz     :     0.005884
      dx2y2   :     0.004906
      dxy     :     0.003593
  7 H s       :     0.586715  s :     0.586715
      pz      :     0.014468  p :     0.037809
      px      :     0.015837
      py      :     0.007504


                     *******************************
                     * LOEWDIN POPULATION ANALYSIS *
                     *******************************

----------------------
LOEWDIN ATOMIC CHARGES
----------------------
   0 C :   -0.235703
   1 C :    0.157671
   2 H :    0.105826
   3 H :    0.106622
   4 H :    0.094752
   5 O :   -0.280606
   6 O :   -0.164790
   7 H :    0.216227

-------------------------------
LOEWDIN REDUCED ORBITAL CHARGES
-------------------------------
  0 C s       :     2.924559  s :     2.924559
      pz      :     1.112798  p :     3.251434
      px      :     1.073301
      py      :     1.065335
      dz2     :     0.013272  d :     0.059710
      dxz     :     0.002307
      dyz     :     0.016175
      dx2y2   :     0.008752
      dxy     :     0.019203
  1 C s       :     2.854834  s :     2.854834
      pz      :     0.880342  p :     2.697262
      px      :     0.921962
      py      :     0.894958
      dz2     :     0.075460  d :     0.290233
      dxz     :     0.050625
      dyz     :     0.076885
      dx2y2   :     0.036493
      dxy     :     0.050770
  2 H s       :     0.853335  s :     0.853335
      pz      :     0.007169  p :     0.040839
      px      :     0.024155
      py      :     0.009515
  3 H s       :     0.852543  s :     0.852543
      pz      :     0.021468  p :     0.040835
      px      :     0.007268
      py      :     0.012099
  4 H s       :     0.865509  s :     0.865509
      pz      :     0.018126  p :     0.039739
      px      :     0.006482
      py      :     0.015131
  5 O s       :     3.558434  s :     3.558434
      pz      :     1.494457  p :     4.670115
      px      :     1.496484
      py      :     1.679174
      dz2     :     0.012195  d :     0.052057
      dxz     :     0.019783
      dyz     :     0.006895
      dx2y2   :     0.007366
      dxy     :     0.005819
  6 O s       :     3.466420  s :     3.466420
      pz      :     1.405056  p :     4.652755
      px      :     1.598356
      py      :     1.649343
      dz2     :     0.006085  d :     0.045615
      dxz     :     0.010686
      dyz     :     0.015254
      dx2y2   :     0.008592
      dxy     :     0.004999
  7 H s       :     0.668481  s :     0.668481
      pz      :     0.042688  p :     0.115292
      px      :     0.049018
      py      :     0.023586


                      *****************************
                      * MAYER POPULATION ANALYSIS *
                      *****************************

  NA   - Mulliken gross atomic population
  ZA   - Total nuclear charge
  QA   - Mulliken gross atomic charge
  VA   - Mayer's total valence
  BVA  - Mayer's bonded valence
  FA   - Mayer's free valence

  ATOM       NA         ZA         QA         VA         BVA        FA
  0 C      6.4245     6.0000    -0.4245     3.8190     3.8190     0.0000
  1 C      5.4518     6.0000     0.5482     4.0308     4.0308    -0.0000
  2 H      0.8353     1.0000     0.1647     0.9464     0.9464    -0.0000
  3 H      0.8328     1.0000     0.1672     0.9460     0.9460     0.0000
  4 H      0.8562     1.0000     0.1438     0.9583     0.9583     0.0000
  5 O      8.4836     8.0000    -0.4836     2.0554     2.0554    -0.0000
  6 O      8.4913     8.0000    -0.4913     2.0126     2.0126    -0.0000
  7 H      0.6245     1.0000     0.3755     0.8608     0.8608    -0.0000

  Mayer bond orders larger than 0.1
B(  0-C ,  1-C ) :   0.9929 B(  0-C ,  2-H ) :   0.9372 B(  0-C ,  3-H ) :   0.9368 
B(  0-C ,  4-H ) :   0.9525 B(  1-C ,  5-O ) :   1.9252 B(  1-C ,  6-O ) :   1.0960 
B(  6-O ,  7-H ) :   0.8286 

-------
TIMINGS
-------

Total SCF time: 0 days 0 hours 0 min 23 sec 

Total time                  ....      23.428 sec
Sum of individual times     ....      23.349 sec  ( 99.7%)

Fock matrix formation       ....      22.069 sec  ( 94.2%)
  XC integration            ....       2.785 sec  ( 12.6% of F)
    Basis function eval.    ....       1.206 sec  ( 43.3% of XC)
    Density eval.           ....       0.590 sec  ( 21.2% of XC)
    XC-Functional eval.     ....       0.335 sec  ( 12.0% of XC)
    XC-Potential eval.      ....       0.576 sec  ( 20.7% of XC)
Diagonalization             ....       0.023 sec  (  0.1%)
Density matrix formation    ....       0.002 sec  (  0.0%)
Population analysis         ....       0.004 sec  (  0.0%)
Initial guess               ....       0.353 sec  (  1.5%)
Orbital Transformation      ....       0.000 sec  (  0.0%)
Orbital Orthonormalization  ....       0.000 sec  (  0.0%)
DIIS solution               ....       0.005 sec  (  0.0%)
SOSCF solution              ....       0.023 sec  (  0.1%)
Grid generation             ....       0.870 sec  (  3.7%)

-------------------------   --------------------
FINAL SINGLE POINT ENERGY      -228.973873793968
-------------------------   --------------------

------------------------------------------------------------------------------
                         ORCA SCF GRADIENT CALCULATION
------------------------------------------------------------------------------

Gradient of the Kohn-Sham DFT energy:
Kohn-Sham wavefunction type      ... RKS
Hartree-Fock exchange scaling    ...    0.200
Number of operators              ...    1
Number of atoms                  ...    8
Basis set dimensions             ...   76
Integral neglect threshold       ... 2.5e-11
Integral primitive cutoff        ... 2.5e-12

Nuclear repulsion gradient       ... done
One Electron Gradient            ... done
Pre-screening matrix             ... done
Starting the two electron gradient:
Two electron gradient done
Exchange-correlation gradient    ... done

------------------
CARTESIAN GRADIENT
------------------

   1   C   :   -0.000686196    0.010358069    0.011240932
   2   C   :    0.006833616    0.007134233   -0.000887548
   3   H   :    0.001668806    0.000348589   -0.003635676
   4   H   :    0.003104803   -0.000738403   -0.002505887
   5   H   :    0.000697544   -0.000484047   -0.001317225
   6   O   :    0.003404949   -0.009210804   -0.013150219
   7   O   :   -0.011593761   -0.010777290    0.002940068
   8   H   :   -0.003429761    0.003369653    0.007315555

Difference to translation invariance:
           :    0.0000000000   -0.0000000000   -0.0000000000

Norm of the cartesian gradient     ...    0.0311889832
RMS gradient                       ...    0.0063664245
MAX gradient                       ...    0.0131502191

-------
TIMINGS
-------

Total SCF gradient time            ...        7.107 sec

One electron gradient       ....       0.042 sec  (  0.6%)
Prescreening matrices       ....       0.093 sec  (  1.3%)
Two electron gradient       ....       3.327 sec  ( 46.8%)
XC gradient                 ....       3.175 sec  ( 44.7%)
CPCM gradient               ....       0.284 sec  (  4.0%)
   A-Matrix (El+Nuc)        ....       0.006 sec  (  0.1%)
   Potential                ....       0.278 sec  (  3.9%)

                            ***************************************
                            *     ORCA property calculations      *
                            ***************************************

                                    ---------------------
                                    Active property flags
                                    ---------------------
   (+) Dipole Moment


------------------------------------------------------------------------------
                       ORCA ELECTRIC PROPERTIES CALCULATION
------------------------------------------------------------------------------

Dipole Moment Calculation                       ... on
Quadrupole Moment Calculation                   ... off
Polarizability Calculation                      ... off
GBWName                                         ... etanoico.gbw
Electron density file                           ... etanoico.scfp.tmp
The origin for moment calculation is the CENTER OF MASS  = (-7.094560,  1.196521 -0.124324)

-------------
DIPOLE MOMENT
-------------
                                X             Y             Z
Electronic contribution:      2.35974       2.46292      -0.33557
Nuclear contribution   :     -3.98759      -3.07184       1.65354
                        -----------------------------------------
Total Dipole Moment    :     -1.62785      -0.60892       1.31797
                        -----------------------------------------
Magnitude (a.u.)       :      2.18122
Magnitude (Debye)      :      5.54423


----------------------------------------------------------------------------
                           ORCA NUMERICAL FREQUENCIES
----------------------------------------------------------------------------

Number of atoms                ... 8
Central differences            ... used
Number of displacements        ... 48
Numerical increment            ...  0.005 bohr
IR-spectrum generation         ... on
Raman-spectrum generation      ... off
Surface Crossing Hessian       ... off

The output will be reduced. Please look at the following files:
SCF program output             ... >etanoico.lastscf
Integral program output        ... >etanoico.lastint
Gradient program output        ... >etanoico.lastgrad
Dipole moment program output   ... >etanoico.lastmom


         <<<Energy and Gradient at the input geometry>>>
The origin for moment calculation is the CENTER OF MASS  = (-7.094560,  1.196521 -0.124324)
             <<<Displacing   1/coordinate 1 (+)>>>
The origin for moment calculation is the CENTER OF MASS  = (-7.093560,  1.196521 -0.124324)
             <<<Displacing   1/coordinate 1 (-)>>>
The origin for moment calculation is the CENTER OF MASS  = (-7.095560,  1.196521 -0.124324)
             <<<Displacing   1/coordinate 2 (+)>>>
The origin for moment calculation is the CENTER OF MASS  = (-7.094560,  1.197521 -0.124324)
             <<<Displacing   1/coordinate 2 (-)>>>
The origin for moment calculation is the CENTER OF MASS  = (-7.094560,  1.195521 -0.124324)
             <<<Displacing   1/coordinate 3 (+)>>>
The origin for moment calculation is the CENTER OF MASS  = (-7.094560,  1.196521 -0.123324)
             <<<Displacing   1/coordinate 3 (-)>>>
The origin for moment calculation is the CENTER OF MASS  = (-7.094560,  1.196521 -0.125324)
             <<<Displacing   2/coordinate 1 (+)>>>
The origin for moment calculation is the CENTER OF MASS  = (-7.093560,  1.196521 -0.124324)
             <<<Displacing   2/coordinate 1 (-)>>>
The origin for moment calculation is the CENTER OF MASS  = (-7.095560,  1.196521 -0.124324)
             <<<Displacing   2/coordinate 2 (+)>>>
The origin for moment calculation is the CENTER OF MASS  = (-7.094560,  1.197521 -0.124324)
             <<<Displacing   2/coordinate 2 (-)>>>
The origin for moment calculation is the CENTER OF MASS  = (-7.094560,  1.195521 -0.124324)
             <<<Displacing   2/coordinate 3 (+)>>>
The origin for moment calculation is the CENTER OF MASS  = (-7.094560,  1.196521 -0.123324)
             <<<Displacing   2/coordinate 3 (-)>>>
The origin for moment calculation is the CENTER OF MASS  = (-7.094560,  1.196521 -0.125324)
             <<<Displacing   3/coordinate 1 (+)>>>
The origin for moment calculation is the CENTER OF MASS  = (-7.094476,  1.196521 -0.124324)
             <<<Displacing   3/coordinate 1 (-)>>>
The origin for moment calculation is the CENTER OF MASS  = (-7.094644,  1.196521 -0.124324)
             <<<Displacing   3/coordinate 2 (+)>>>
The origin for moment calculation is the CENTER OF MASS  = (-7.094560,  1.196605 -0.124324)
             <<<Displacing   3/coordinate 2 (-)>>>
The origin for moment calculation is the CENTER OF MASS  = (-7.094560,  1.196438 -0.124324)
             <<<Displacing   3/coordinate 3 (+)>>>
The origin for moment calculation is the CENTER OF MASS  = (-7.094560,  1.196521 -0.124240)
             <<<Displacing   3/coordinate 3 (-)>>>
The origin for moment calculation is the CENTER OF MASS  = (-7.094560,  1.196521 -0.124408)
             <<<Displacing   4/coordinate 1 (+)>>>
The origin for moment calculation is the CENTER OF MASS  = (-7.094476,  1.196521 -0.124324)
             <<<Displacing   4/coordinate 1 (-)>>>
The origin for moment calculation is the CENTER OF MASS  = (-7.094644,  1.196521 -0.124324)
             <<<Displacing   4/coordinate 2 (+)>>>
The origin for moment calculation is the CENTER OF MASS  = (-7.094560,  1.196605 -0.124324)
             <<<Displacing   4/coordinate 2 (-)>>>
The origin for moment calculation is the CENTER OF MASS  = (-7.094560,  1.196438 -0.124324)
             <<<Displacing   4/coordinate 3 (+)>>>
The origin for moment calculation is the CENTER OF MASS  = (-7.094560,  1.196521 -0.124240)
             <<<Displacing   4/coordinate 3 (-)>>>
The origin for moment calculation is the CENTER OF MASS  = (-7.094560,  1.196521 -0.124408)
             <<<Displacing   5/coordinate 1 (+)>>>
The origin for moment calculation is the CENTER OF MASS  = (-7.094476,  1.196521 -0.124324)
             <<<Displacing   5/coordinate 1 (-)>>>
The origin for moment calculation is the CENTER OF MASS  = (-7.094644,  1.196521 -0.124324)
             <<<Displacing   5/coordinate 2 (+)>>>
The origin for moment calculation is the CENTER OF MASS  = (-7.094560,  1.196605 -0.124324)
             <<<Displacing   5/coordinate 2 (-)>>>
The origin for moment calculation is the CENTER OF MASS  = (-7.094560,  1.196438 -0.124324)
             <<<Displacing   5/coordinate 3 (+)>>>
The origin for moment calculation is the CENTER OF MASS  = (-7.094560,  1.196521 -0.124240)
             <<<Displacing   5/coordinate 3 (-)>>>
The origin for moment calculation is the CENTER OF MASS  = (-7.094560,  1.196521 -0.124408)
             <<<Displacing   6/coordinate 1 (+)>>>
The origin for moment calculation is the CENTER OF MASS  = (-7.093228,  1.196521 -0.124324)
             <<<Displacing   6/coordinate 1 (-)>>>
The origin for moment calculation is the CENTER OF MASS  = (-7.095892,  1.196521 -0.124324)
             <<<Displacing   6/coordinate 2 (+)>>>
The origin for moment calculation is the CENTER OF MASS  = (-7.094560,  1.197854 -0.124324)
             <<<Displacing   6/coordinate 2 (-)>>>
The origin for moment calculation is the CENTER OF MASS  = (-7.094560,  1.195189 -0.124324)
             <<<Displacing   6/coordinate 3 (+)>>>
The origin for moment calculation is the CENTER OF MASS  = (-7.094560,  1.196521 -0.122992)
             <<<Displacing   6/coordinate 3 (-)>>>
The origin for moment calculation is the CENTER OF MASS  = (-7.094560,  1.196521 -0.125656)
             <<<Displacing   7/coordinate 1 (+)>>>
The origin for moment calculation is the CENTER OF MASS  = (-7.093228,  1.196521 -0.124324)
             <<<Displacing   7/coordinate 1 (-)>>>
The origin for moment calculation is the CENTER OF MASS  = (-7.095892,  1.196521 -0.124324)
             <<<Displacing   7/coordinate 2 (+)>>>
The origin for moment calculation is the CENTER OF MASS  = (-7.094560,  1.197854 -0.124324)
             <<<Displacing   7/coordinate 2 (-)>>>
The origin for moment calculation is the CENTER OF MASS  = (-7.094560,  1.195189 -0.124324)
             <<<Displacing   7/coordinate 3 (+)>>>
The origin for moment calculation is the CENTER OF MASS  = (-7.094560,  1.196521 -0.122992)
             <<<Displacing   7/coordinate 3 (-)>>>
The origin for moment calculation is the CENTER OF MASS  = (-7.094560,  1.196521 -0.125656)
             <<<Displacing   8/coordinate 1 (+)>>>
The origin for moment calculation is the CENTER OF MASS  = (-7.094476,  1.196521 -0.124324)
             <<<Displacing   8/coordinate 1 (-)>>>
The origin for moment calculation is the CENTER OF MASS  = (-7.094644,  1.196521 -0.124324)
             <<<Displacing   8/coordinate 2 (+)>>>
The origin for moment calculation is the CENTER OF MASS  = (-7.094560,  1.196605 -0.124324)
             <<<Displacing   8/coordinate 2 (-)>>>
The origin for moment calculation is the CENTER OF MASS  = (-7.094560,  1.196438 -0.124324)
             <<<Displacing   8/coordinate 3 (+)>>>
The origin for moment calculation is the CENTER OF MASS  = (-7.094560,  1.196521 -0.124240)
             <<<Displacing   8/coordinate 3 (-)>>>
The origin for moment calculation is the CENTER OF MASS  = (-7.094560,  1.196521 -0.124408)

-----------------------
VIBRATIONAL FREQUENCIES
-----------------------

   0:         0.00 cm**-1
   1:         0.00 cm**-1
   2:         0.00 cm**-1
   3:         0.00 cm**-1
   4:         0.00 cm**-1
   5:         0.00 cm**-1
   6:       109.93 cm**-1
   7:       452.50 cm**-1
   8:       528.95 cm**-1
   9:       597.05 cm**-1
  10:       622.70 cm**-1
  11:       892.48 cm**-1
  12:      1013.84 cm**-1
  13:      1071.86 cm**-1
  14:      1216.91 cm**-1
  15:      1299.89 cm**-1
  16:      1403.97 cm**-1
  17:      1454.81 cm**-1
  18:      1485.22 cm**-1
  19:      1798.83 cm**-1
  20:      3062.04 cm**-1
  21:      3141.73 cm**-1
  22:      3155.43 cm**-1
  23:      3702.32 cm**-1


------------
NORMAL MODES
------------

These modes are the cartesian displacements weighted by the diagonal matrix
M(i,i)=1/sqrt(m[i]) where m[i] is the mass of the displaced atom
Thus, these vectors are normalized but *not* orthogonal

                  0          1          2          3          4          5    
      0       0.000000   0.000000   0.000000   0.000000   0.000000   0.000000
      1       0.000000   0.000000   0.000000   0.000000   0.000000   0.000000
      2       0.000000   0.000000   0.000000   0.000000   0.000000   0.000000
      3       0.000000   0.000000   0.000000   0.000000   0.000000   0.000000
      4       0.000000   0.000000   0.000000   0.000000   0.000000   0.000000
      5       0.000000   0.000000   0.000000   0.000000   0.000000   0.000000
      6       0.000000   0.000000   0.000000   0.000000   0.000000   0.000000
      7       0.000000   0.000000   0.000000   0.000000   0.000000   0.000000
      8       0.000000   0.000000   0.000000   0.000000   0.000000   0.000000
      9       0.000000   0.000000   0.000000   0.000000   0.000000   0.000000
     10       0.000000   0.000000   0.000000   0.000000   0.000000   0.000000
     11       0.000000   0.000000   0.000000   0.000000   0.000000   0.000000
     12       0.000000   0.000000   0.000000   0.000000   0.000000   0.000000
     13       0.000000   0.000000   0.000000   0.000000   0.000000   0.000000
     14       0.000000   0.000000   0.000000   0.000000   0.000000   0.000000
     15       0.000000   0.000000   0.000000   0.000000   0.000000   0.000000
     16       0.000000   0.000000   0.000000   0.000000   0.000000   0.000000
     17       0.000000   0.000000   0.000000   0.000000   0.000000   0.000000
     18       0.000000   0.000000   0.000000   0.000000   0.000000   0.000000
     19       0.000000   0.000000   0.000000   0.000000   0.000000   0.000000
     20       0.000000   0.000000   0.000000   0.000000   0.000000   0.000000
     21       0.000000   0.000000   0.000000   0.000000   0.000000   0.000000
     22       0.000000   0.000000   0.000000   0.000000   0.000000   0.000000
     23       0.000000   0.000000   0.000000   0.000000   0.000000   0.000000
                  6          7          8          9         10         11    
      0       0.001993   0.049469   0.010422   0.227789   0.019329  -0.240700
      1      -0.001907  -0.097176  -0.004881   0.233737  -0.014570  -0.270559
      2       0.001853  -0.155237   0.006072  -0.038026   0.014944   0.016643
      3       0.013517  -0.065629  -0.083779   0.103015   0.147834   0.146060
      4      -0.011289   0.037784   0.073011   0.134958  -0.124079   0.079531
      5       0.011411   0.117012  -0.069655   0.016438   0.125116  -0.095885
      6       0.023262  -0.051212  -0.084528   0.214363   0.179592  -0.261571
      7       0.007140  -0.345062  -0.226011   0.201549   0.369542  -0.305334
      8      -0.598893  -0.288113   0.021033  -0.059016  -0.047525   0.024526
      9      -0.427662  -0.049032   0.187955   0.211154  -0.317781  -0.276080
     10       0.334866  -0.350465   0.138721   0.192218  -0.247613  -0.295501
     11       0.256652  -0.285204   0.061291  -0.059021  -0.073747   0.014094
     12       0.333524   0.426671   0.110243   0.298853  -0.175854  -0.370185
     13      -0.279558   0.168447  -0.082032   0.290662   0.147973  -0.371729
     14       0.282249  -0.333922   0.085023  -0.070928  -0.149093   0.067518
     15      -0.034484  -0.130337   0.007906  -0.076425  -0.062286   0.157327
     16       0.029067  -0.099618  -0.011343  -0.291421   0.050999  -0.015787
     17      -0.029375   0.054515   0.007412  -0.197377  -0.053459  -0.200368
     18       0.024189   0.111439   0.070836  -0.198732  -0.014210  -0.019713
     19      -0.020401   0.157632  -0.059042  -0.000364   0.011256   0.229749
     20       0.020576   0.022998   0.061551   0.226068  -0.010062   0.251870
     21       0.049461   0.166086  -0.589380  -0.298819  -0.463673  -0.148674
     22      -0.042756   0.313981   0.474670  -0.446466   0.394097  -0.147222
     23       0.041614   0.132439  -0.504286  -0.009179  -0.390325   0.020630
                 12         13         14         15         16         17    
      0      -0.075949  -0.107966  -0.005269   0.011050   0.114209  -0.009612
      1       0.044592   0.090892   0.039629  -0.042657   0.119203  -0.046541
      2       0.137197  -0.086829   0.052185  -0.053502  -0.016253  -0.035568
      3       0.035032   0.129500  -0.040186   0.086474  -0.027155  -0.014642
      4       0.068681  -0.109250  -0.092275   0.266634  -0.083404  -0.017816
      5       0.025267   0.108576  -0.057197   0.158587  -0.050329  -0.000598
      6      -0.232816  -0.353050  -0.020224  -0.088490  -0.192737  -0.002590
      7      -0.353781  -0.495270  -0.023115  -0.221103  -0.563666   0.030165
      8      -0.203088   0.187132  -0.103781   0.264654   0.231305   0.594500
      9      -0.162579   0.530602   0.035834  -0.357121  -0.586839  -0.396739
     10      -0.442500   0.323699  -0.094474   0.002482  -0.229626   0.349930
     11      -0.129708  -0.035592  -0.037606   0.041562  -0.101194   0.255108
     12       0.444268   0.247268   0.227568  -0.317958  -0.289445   0.417773
     13       0.415641  -0.186685   0.209991  -0.275056  -0.169382   0.263023
     14      -0.121134   0.195897  -0.066734   0.099746   0.171190  -0.220534
     15       0.031508  -0.024316   0.061704   0.009827  -0.001780   0.015791
     16       0.010285   0.022760   0.009526  -0.032893   0.009853   0.005106
     17      -0.026759  -0.025119  -0.060514  -0.043462   0.011698  -0.013458
     18       0.000012  -0.016970  -0.053983  -0.045381   0.005032   0.002179
     19      -0.054098   0.010789  -0.022614  -0.137733   0.026987   0.005878
     20      -0.054667  -0.012253   0.045071  -0.081555   0.020820   0.003003
     21      -0.061604  -0.026118   0.175899   0.165819  -0.019900  -0.014646
     22      -0.273696   0.044518   0.742650   0.533031  -0.048629  -0.050595
     23      -0.189544  -0.013402   0.512949   0.326158  -0.024064  -0.032186
                 18         19         20         21         22         23    
      0      -0.032446   0.056864   0.032413  -0.033395  -0.060081  -0.000168
      1       0.028218   0.035118   0.037130   0.039261   0.050366   0.000067
      2      -0.027690  -0.033293  -0.001870   0.077906  -0.051188   0.000248
      3      -0.014933  -0.487581  -0.001208  -0.001850  -0.000413   0.002060
      4       0.012870  -0.091374  -0.001585   0.000284   0.000377   0.001220
      5      -0.012961   0.487052  -0.000140   0.002444  -0.000322  -0.001029
      6       0.109762   0.068489  -0.516704   0.388289   0.649119  -0.000436
      7       0.357578   0.083939   0.229135  -0.163421  -0.274520   0.000183
      8       0.308203  -0.102061  -0.017495   0.025125   0.013021   0.000973
      9      -0.045778   0.141396   0.079713  -0.061766   0.084497  -0.000651
     10      -0.411821   0.021259  -0.275865   0.214638  -0.342006   0.000740
     11      -0.264662  -0.042376   0.492315  -0.354382   0.608288   0.000313
     12       0.456821  -0.201270   0.065975   0.080643  -0.009834   0.001208
     13      -0.393209  -0.127351  -0.378961  -0.514382   0.010010   0.003908
     14       0.395817   0.111613  -0.452739  -0.605447  -0.004864   0.002517
     15       0.000923   0.284430  -0.000026   0.000678  -0.000345  -0.001054
     16      -0.001012   0.035585   0.000109  -0.000114   0.000268  -0.000039
     17       0.001235  -0.300327   0.000131  -0.000900  -0.000281   0.001174
     18       0.002405   0.044805   0.000081   0.000322   0.000257   0.045031
     19      -0.002149   0.032275   0.000030  -0.000132  -0.000196   0.010513
     20       0.002072  -0.022404  -0.000119  -0.000509   0.000170  -0.042710
     21      -0.009071  -0.101951  -0.001674  -0.003081  -0.001551  -0.720668
     22       0.008035  -0.384598  -0.000057  -0.004128   0.000738  -0.186410
     23      -0.007461  -0.251631   0.001685  -0.000374  -0.000906   0.664749


-----------
IR SPECTRUM
-----------

 Mode    freq (cm**-1)   T**2         TX         TY         TZ
-------------------------------------------------------------------
   6:       109.93    0.036112  (  0.015823  -0.164928   0.093062)
   7:       452.50    7.211916  (  0.925717   2.213624   1.206165)
   8:       528.95  159.885519  ( -8.102934   6.737523  -6.988117)
   9:       597.05   12.126320  (  2.819226   1.706270  -1.125578)
  10:       622.70   22.433325  ( -3.020562   2.591380  -2.567934)
  11:       892.48   38.044143  (  1.566882  -3.178749  -5.048226)
  12:      1013.84    5.995002  (  0.231781   1.863963   1.570644)
  13:      1071.86   11.662410  (  2.237875  -1.662203   1.972665)
  14:      1216.91   34.263747  ( -1.033941   3.731204   4.390083)
  15:      1299.89  577.868188  (  0.085249  17.162413  16.831890)
  16:      1403.97  114.532119  ( -4.383601  -9.013836  -3.750590)
  17:      1454.81   11.216837  ( -1.892327   0.292131   2.747834)
  18:      1485.22   12.060119  (  2.257470  -1.971506   1.754170)
  19:      1798.83  485.082491  (-15.461830  -2.889485  15.416394)
  20:      3062.04    1.220369  (  0.361721   0.906787   0.516975)
  21:      3141.73   12.084983  ( -0.470549   2.184418   2.663059)
  22:      3155.43    2.119146  ( -1.033905   0.825369  -0.607414)
  23:      3702.32  161.112738  ( -7.674079   1.065335  10.054169)

The first frequency considered to be a vibration is 6
The total number of vibrations considered is 18


--------------------------
THERMOCHEMISTRY AT 298.15K
--------------------------

Temperature         ... 298.15 K
Pressure            ... 1.00 atm
Total Mass          ... 60.05 AMU

Throughout the following assumptions are being made:
  (1) The electronic state is orbitally nondegenerate
  (2) There are no thermally accessible electronically excited states
  (3) Hindered rotations indicated by low frequency modes are not
      treated as such but are treated as vibrations and this may
      cause some error
  (4) All equations used are the standard statistical mechanics
      equations for an ideal gas
  (5) All vibrations are strictly harmonic

freq.     109.93  E(vib)   ...       0.45 
freq.     452.50  E(vib)   ...       0.16 
freq.     528.95  E(vib)   ...       0.13 
freq.     597.05  E(vib)   ...       0.10 
freq.     622.70  E(vib)   ...       0.09 
freq.     892.48  E(vib)   ...       0.03 
freq.    1013.84  E(vib)   ...       0.02 
freq.    1071.86  E(vib)   ...       0.02 
freq.    1216.91  E(vib)   ...       0.01 
freq.    1299.89  E(vib)   ...       0.01 
freq.    1403.97  E(vib)   ...       0.00 
freq.    1454.81  E(vib)   ...       0.00 
freq.    1485.22  E(vib)   ...       0.00 
freq.    1798.83  E(vib)   ...       0.00 
freq.    3062.04  E(vib)   ...       0.00 
freq.    3141.73  E(vib)   ...       0.00 
freq.    3155.43  E(vib)   ...       0.00 
freq.    3702.32  E(vib)   ...       0.00 

------------
INNER ENERGY
------------

The inner energy is: U= E(el) + E(ZPE) + E(vib) + E(rot) + E(trans)
    E(el)   - is the total energy from the electronic structure calculation
              = E(kin-el) + E(nuc-el) + E(el-el) + E(nuc-nuc)
    E(ZPE)  - the the zero temperature vibrational energy from the frequency calculation
    E(vib)  - the the finite temperature correction to E(ZPE) due to population
              of excited vibrational states
    E(rot)  - is the rotational thermal energy
    E(trans)- is the translational thermal energy

Summary of contributions to the inner energy U:
Electronic energy                ...   -228.97387379 Eh
Zero point energy                ...      0.06153436 Eh      38.61 kcal/mol
Thermal vibrational correction   ...      0.00165566 Eh       1.04 kcal/mol
Thermal rotational correction    ...      0.00141627 Eh       0.89 kcal/mol
Thermal translational correction ...      0.00141627 Eh       0.89 kcal/mol
-----------------------------------------------------------------------
Total thermal energy                   -228.90785124 Eh


Summary of corrections to the electronic energy:
(perhaps to be used in another calculation)
Total thermal correction                  0.00448820 Eh       2.82 kcal/mol
Non-thermal (ZPE) correction              0.06153436 Eh      38.61 kcal/mol
-----------------------------------------------------------------------
Total correction                          0.06602256 Eh      41.43 kcal/mol


--------
ENTHALPY
--------

The enthalpy is H = U + kB*T
                kB is Boltzmann's constant
Total free energy                 ...   -228.90785124 Eh 
Thermal Enthalpy correction       ...      0.00094421 Eh       0.59 kcal/mol
-----------------------------------------------------------------------
Total Enthalpy                    ...   -228.90690703 Eh


Vibrational entropy computed according to the QRRHO of S. Grimme
Chem.Eur.J. 2012 18 9955


-------
ENTROPY
-------

The entropy contributions are T*S = T*(S(el)+S(vib)+S(rot)+S(trans)
     S(el)   - electronic entropy
     S(vib)  - vibrational entropy
     S(rot)  - rotational entropy
     S(trans)- translational entropy
The entropies will be listed as mutliplied by the temperature to get
units of energy

Electronic entropy                ...      0.00000000 Eh      0.00 kcal/mol
Vibrational entropy               ...      0.00272123 Eh      1.71 kcal/mol
Rotational entropy                ...      0.01030086 Eh      6.46 kcal/mol
Translational entropy             ...      0.01814900 Eh     11.39 kcal/mol
-----------------------------------------------------------------------
Final entropy term                ...      0.03117109 Eh     19.56 kcal/mol


CAUTION: The rotational entropy is not quite correctly treated here
         because it includes a symmetry number that is not yet correctly
         implemented in ORCA!
For a nonlinear molecule the correct rotational entropy is:
    S(rot) = R*(ln(qrot/sn)+1.5)
    R    = 8.31441 J/mol/K = 1.987191683e-3 kcal/mol/K
    qrot = 36623.5371550
    sn is the rotational symmetry number. We have assumed 3 here
       if it is different for your molecule then you should correct
       the printed rotational entropy by manually evaluating the equation
       as given above

For convenience we print out the resulting values for sn=1 - 12:
 sn= 1  qrot/sn=   36623.5372 T*S(rot)=     7.11 kcal/mol T*S(tot)=    20.21 kcal/mol
 sn= 2  qrot/sn=   18311.7686 T*S(rot)=     6.70 kcal/mol T*S(tot)=    19.80 kcal/mol
 sn= 3  qrot/sn=   12207.8457 T*S(rot)=     6.46 kcal/mol T*S(tot)=    19.56 kcal/mol
 sn= 4  qrot/sn=    9155.8843 T*S(rot)=     6.29 kcal/mol T*S(tot)=    19.39 kcal/mol
 sn= 5  qrot/sn=    7324.7074 T*S(rot)=     6.16 kcal/mol T*S(tot)=    19.26 kcal/mol
 sn= 6  qrot/sn=    6103.9229 T*S(rot)=     6.05 kcal/mol T*S(tot)=    19.15 kcal/mol
 sn= 7  qrot/sn=    5231.9339 T*S(rot)=     5.96 kcal/mol T*S(tot)=    19.06 kcal/mol
 sn= 8  qrot/sn=    4577.9421 T*S(rot)=     5.88 kcal/mol T*S(tot)=    18.98 kcal/mol
 sn= 9  qrot/sn=    4069.2819 T*S(rot)=     5.81 kcal/mol T*S(tot)=    18.91 kcal/mol
 sn=10  qrot/sn=    3662.3537 T*S(rot)=     5.75 kcal/mol T*S(tot)=    18.85 kcal/mol
 sn=11  qrot/sn=    3329.4125 T*S(rot)=     5.69 kcal/mol T*S(tot)=    18.79 kcal/mol
 sn=12  qrot/sn=    3051.9614 T*S(rot)=     5.64 kcal/mol T*S(tot)=    18.74 kcal/mol


-------------------
GIBBS FREE ENTHALPY
-------------------

The Gibbs free enthalpy is G = H - T*S

Total enthalpy                    ...   -228.90690703 Eh 
Total entropy correction          ...     -0.03117109 Eh    -19.56 kcal/mol
-----------------------------------------------------------------------
Final Gibbs free enthalpy         ...   -228.93807811 Eh

For completeness - the Gibbs free enthalpy minus the electronic energy
G-E(el)                           ...      0.03579568 Eh     22.46 kcal/mol


Total Time for Numerical Frequencies  :      1167.529 sec
Time for Reference State(s)           :        14.207 sec
Time for Displacements                :      1153.136 sec

Timings for individual modules:

Sum of individual times         ...       45.122 sec (=   0.752 min)
GTO integral calculation        ...        1.059 sec (=   0.018 min)   2.3 %
SCF iterations                  ...       29.061 sec (=   0.484 min)  64.4 %
SCF Gradient evaluation         ...       15.001 sec (=   0.250 min)  33.2 %
                             ****ORCA TERMINATED NORMALLY****
TOTAL RUN TIME: 0 days 0 hours 19 minutes 58 seconds 921 msec
