8
	Energy:      -4.7343653
C         -5.18449       -0.50651        0.00000
C         -4.08692        0.53352        0.00000
H         -5.92602       -0.28278        0.77272
H         -4.77194       -1.50070        0.19600
H         -5.69252       -0.52920       -0.96871
H         -3.57889        0.55620        0.96872
H         -4.49947        1.52771       -0.19599
H         -3.34539        0.30979       -0.77272
