
                                 *****************
                                 * O   R   C   A *
                                 *****************

           --- An Ab Initio, DFT and Semiempirical electronic structure package ---

                  #######################################################
                  #                        -***-                        #
                  #  Department of molecular theory and spectroscopy    #
                  #              Directorship: Frank Neese              #
                  # Max Planck Institute for Chemical Energy Conversion #
                  #                  D-45470 Muelheim/Ruhr              #
                  #                       Germany                       #
                  #                                                     #
                  #                  All rights reserved                #
                  #                        -***-                        #
                  #######################################################


                         Program Version 4.0.1 -  RELEASE  -


 With contributions from (in alphabetic order):
   Daniel Aravena         : Magnetic Properties
   Michael Atanasov       : Ab Initio Ligand Field Theory
   Ute Becker             : Parallelization
   Martin Brehm           : Molecular dynamics
   Dmytro Bykov           : SCF Hessian
   Vijay G. Chilkuri      : MRCI spin determinant printing
   Dipayan Datta          : RHF DLPNO-CCSD density
   Achintya Kumar Dutta   : EOM-CC, STEOM-CC
   Dmitry Ganyushin       : Spin-Orbit,Spin-Spin,Magnetic field MRCI
   Yang Guo               : DLPNO-NEVPT2, CIM, IAO-localization
   Andreas Hansen         : Spin unrestricted coupled pair/coupled cluster methods
   Lee Huntington         : MR-EOM, pCC
   Robert Izsak           : Overlap fitted RIJCOSX, COSX-SCS-MP3, EOM
   Christian Kollmar      : KDIIS, OOCD, Brueckner-CCSD(T), CCSD density
   Simone Kossmann        : Meta GGA functionals, TD-DFT gradient, OOMP2, MP2 Hessian
   Martin Krupicka        : AUTO-CI
   Dagmar Lenk            : GEPOL surface
   Dimitrios Liakos       : Extrapolation schemes; parallel MDCI
   Dimitrios Manganas     : ROCIS; embedding schemes
   Dimitrios Pantazis     : SARC Basis sets
   Taras Petrenko         : DFT Hessian,TD-DFT gradient, ASA, ECA, R-Raman, ABS, FL, XAS/XES, NRVS
   Peter Pinski           : DLPNO-MP2
   Christoph Reimann      : Effective Core Potentials
   Marius Retegan         : Local ZFS, SOC
   Christoph Riplinger    : Optimizer, TS searches, QM/MM, DLPNO-CCSD(T), (RO)-DLPNO pert. Triples
   Tobias Risthaus        : Range-separated hybrids, TD-DFT gradient, RPA, STAB
   Michael Roemelt        : Restricted open shell CIS
   Masaaki Saitow         : Open-shell DLPNO
   Barbara Sandhoefer     : DKH picture change effects
   Kantharuban Sivalingam : CASSCF convergence, NEVPT2, FIC-MRCI
   Georgi Stoychev        : AutoAux
   Boris Wezisla          : Elementary symmetry handling
   Frank Wennmohs         : Technical directorship


 We gratefully acknowledge several colleagues who have allowed us to
 interface, adapt or use parts of their codes:
   Stefan Grimme, W. Hujo, H. Kruse,             : VdW corrections, initial TS optimization,
                  C. Bannwarth                     DFT functionals, gCP, sTDA/sTD-DF
   Ed Valeev                                     : LibInt (2-el integral package), F12 methods
   Garnet Chan, S. Sharma, J. Yang, R. Olivares  : DMRG
   Ulf Ekstrom                                   : XCFun DFT Library
   Mihaly Kallay                                 : mrcc  (arbitrary order and MRCC methods)
   Andreas Klamt, Michael Diedenhofen            : otool_cosmo (COSMO solvation model)
   Jiri Pittner, Ondrej Demel                    : Mk-CCSD
   Frank Weinhold                                : gennbo (NPA and NBO analysis)
   Christopher J. Cramer and Donald G. Truhlar   : smd solvation model


 Your calculation uses the libint2 library for the computation of 2-el integrals
 For citations please refer to: http://libint.valeyev.net

 This ORCA versions uses:
   CBLAS   interface :  Fast vector & matrix operations
   LAPACKE interface :  Fast linear algebra routines
   SCALAPACK package :  Parallel linear algebra routines




*****************************************
The coordinations will be read from file: etano.xyz
*****************************************


Your calculation utilizes the basis: 6-31G(d,p)
   H-He, Li-Ne : W. J. Hehre, R. Ditchfield and J.A. Pople, J. Chem. Phys. 56, 2257 (1972).
                 Note: He and Ne are unpublished basis sets taken from the Gaussian program.
                 Note: Li and B from J. D. Dill and J. A. Pople, J. Chem. Phys. 62, 2921 (1975).
   Na - Ar     : M. M. Francl, W. J. Pietro, W. J. Hehre, J. S. Binkley, M. S. Gordon, 
                 D. J. DeFrees and J. A. Pople, J. Chem. Phys. 77, 3654 (1982).
   K - Zn      : V. A. Rassolov, J. A. Pople, M. A. Ratner, and T. L. Windus, J. Chem. Phys. 109, 1223 (1998).

================================================================================
                                        WARNINGS
                       Please study these warnings very carefully!
================================================================================

Warning: TCutStore was < 0. Adjusted to Thresh (uncritical)

INFO   : the flag for use of LIBINT has been found!

================================================================================
                                       INPUT FILE
================================================================================
NAME = etano.inp
|  1> ! B3LYP 6-31G(d,p) Freq
|  2> 
|  3> * xyzfile 0 1 etano.xyz
|  4> 
|  5>                          ****END OF INPUT****
================================================================================

                       ****************************
                       * Single Point Calculation *
                       ****************************

---------------------------------
CARTESIAN COORDINATES (ANGSTROEM)
---------------------------------
  C     -5.184490   -0.506510    0.000000
  C     -4.086920    0.533520    0.000000
  H     -5.926020   -0.282780    0.772720
  H     -4.771940   -1.500700    0.196000
  H     -5.692520   -0.529200   -0.968710
  H     -3.578890    0.556200    0.968720
  H     -4.499470    1.527710   -0.195990
  H     -3.345390    0.309790   -0.772720

----------------------------
CARTESIAN COORDINATES (A.U.)
----------------------------
  NO LB      ZA    FRAG     MASS         X           Y           Z
   0 C     6.0000    0    12.011   -9.797266   -0.957165    0.000000
   1 C     6.0000    0    12.011   -7.723160    1.008207    0.000000
   2 H     1.0000    0     1.008  -11.198555   -0.534377    1.460229
   3 H     1.0000    0     1.008   -9.017660   -2.835912    0.370386
   4 H     1.0000    0     1.008  -10.757304   -1.000043   -1.830597
   5 H     1.0000    0     1.008   -6.763122    1.051066    1.830616
   6 H     1.0000    0     1.008   -8.502766    2.886954   -0.370367
   7 H     1.0000    0     1.008   -6.321871    0.585418   -1.460229

--------------------------------
INTERNAL COORDINATES (ANGSTROEM)
--------------------------------
 C      0   0   0     0.000000000000     0.00000000     0.00000000
 C      1   0   0     1.512058962409     0.00000000     0.00000000
 H      1   2   0     1.094083201681   110.56807575     0.00000000
 H      1   2   3     1.094087409031   110.56761398   240.00036039
 H      1   2   3     1.094078781944   110.56822170   120.00043186
 H      2   1   3     1.094087428728   110.56766705    59.99977028
 H      2   1   3     1.094085617628   110.56764918   300.00018862
 H      2   1   3     1.094083201681   110.56807575   180.00000000

---------------------------
INTERNAL COORDINATES (A.U.)
---------------------------
 C      0   0   0     0.000000000000     0.00000000     0.00000000
 C      1   0   0     2.857377337293     0.00000000     0.00000000
 H      1   2   0     2.067517618900   110.56807575     0.00000000
 H      1   2   3     2.067525569640   110.56761398   240.00036039
 H      1   2   3     2.067509266808   110.56822170   120.00043186
 H      2   1   3     2.067525606861   110.56766705    59.99977028
 H      2   1   3     2.067522184379   110.56764918   300.00018862
 H      2   1   3     2.067517618900   110.56807575   180.00000000

---------------------
BASIS SET INFORMATION
---------------------
There are 2 groups of distinct atoms

 Group   1 Type C   : 10s4p1d contracted to 3s2p1d pattern {631/31/1}
 Group   2 Type H   : 4s1p contracted to 2s1p pattern {31/1}

Atom   0C    basis set group =>   1
Atom   1C    basis set group =>   1
Atom   2H    basis set group =>   2
Atom   3H    basis set group =>   2
Atom   4H    basis set group =>   2
Atom   5H    basis set group =>   2
Atom   6H    basis set group =>   2
Atom   7H    basis set group =>   2
------------------------------------------------------------------------------
                           ORCA GTO INTEGRAL CALCULATION
------------------------------------------------------------------------------

                         BASIS SET STATISTICS AND STARTUP INFO

 # of primitive gaussian shells          ...   60
 # of primitive gaussian functions       ...   96
 # of contracted shells                  ...   30
 # of contracted basis functions         ...   58
 Highest angular momentum                ...    2
 Maximum contraction depth               ...    6
 Integral package used                   ... LIBINT
 Integral threshhold            Thresh   ...  1.000e-10
 Primitive cut-off              TCut     ...  1.000e-11


------------------------------ INTEGRAL EVALUATION ----------------------------


 * One electron integrals 
 Pre-screening matrix                    ... done
 Shell pair data                         ... done (   0.000 sec)

-------------------------------------------------------------------------------
                                 ORCA SCF
-------------------------------------------------------------------------------

------------
SCF SETTINGS
------------
Hamiltonian:
 Density Functional     Method          .... DFT(GTOs)
 Exchange Functional    Exchange        .... B88
   X-Alpha parameter    XAlpha          ....  0.666667
   Becke's b parameter  XBeta           ....  0.004200
 Correlation Functional Correlation     .... LYP
 LDA part of GGA corr.  LDAOpt          .... VWN-5
 Gradients option       PostSCFGGA      .... off
 Hybrid DFT is turned on
   Fraction HF Exchange ScalHFX         ....  0.200000
   Scaling of DF-GGA-X  ScalDFX         ....  0.720000
   Scaling of DF-GGA-C  ScalDFC         ....  0.810000
   Scaling of DF-LDA-C  ScalLDAC        ....  1.000000
   Perturbative correction              ....  0.000000
   NL short-range parameter             ....  4.800000


General Settings:
 Integral files         IntName         .... etano
 Hartree-Fock type      HFTyp           .... RHF
 Total Charge           Charge          ....    0
 Multiplicity           Mult            ....    1
 Number of Electrons    NEL             ....   18
 Basis Dimension        Dim             ....   58
 Nuclear Repulsion      ENuc            ....     42.4268696779 Eh

Convergence Acceleration:
 DIIS                   CNVDIIS         .... on
   Start iteration      DIISMaxIt       ....    12
   Startup error        DIISStart       ....  0.200000
   # of expansion vecs  DIISMaxEq       ....     5
   Bias factor          DIISBfac        ....   1.050
   Max. coefficient     DIISMaxC        ....  10.000
 Newton-Raphson         CNVNR           .... off
 SOSCF                  CNVSOSCF        .... on
   Start iteration      SOSCFMaxIt      ....   150
   Startup grad/error   SOSCFStart      ....  0.003300
 Level Shifting         CNVShift        .... on
   Level shift para.    LevelShift      ....    0.2500
   Turn off err/grad.   ShiftErr        ....    0.0010
 Zerner damping         CNVZerner       .... off
 Static damping         CNVDamp         .... on
   Fraction old density DampFac         ....    0.7000
   Max. Damping (<1)    DampMax         ....    0.9800
   Min. Damping (>=0)   DampMin         ....    0.0000
   Turn off err/grad.   DampErr         ....    0.1000
 Fernandez-Rico         CNVRico         .... off

SCF Procedure:
 Maximum # iterations   MaxIter         ....   125
 SCF integral mode      SCFMode         .... Direct
   Integral package                     .... LIBINT
 Reset frequeny         DirectResetFreq ....    20
 Integral Threshold     Thresh          ....  1.000e-10 Eh
 Primitive CutOff       TCut            ....  1.000e-11 Eh

Convergence Tolerance:
 Convergence Check Mode ConvCheckMode   .... Total+1el-Energy
 Convergence forced     ConvForced      .... 0
 Energy Change          TolE            ....  1.000e-06 Eh
 1-El. energy change                    ....  1.000e-03 Eh
 Orbital Gradient       TolG            ....  5.000e-05
 Orbital Rotation angle TolX            ....  5.000e-05
 DIIS Error             TolErr          ....  1.000e-06


Diagonalization of the overlap matrix:
Smallest eigenvalue                        ... 8.524e-03
Time for diagonalization                   ...    0.003 sec
Threshold for overlap eigenvalues          ... 1.000e-08
Number of eigenvalues below threshold      ... 0
Time for construction of square roots      ...    0.001 sec
Total time needed                          ...    0.004 sec

-------------------
DFT GRID GENERATION
-------------------

General Integration Accuracy     IntAcc      ...  4.340
Radial Grid Type                 RadialGrid  ... Gauss-Chebyshev
Angular Grid (max. acc.)         AngularGrid ... Lebedev-110
Angular grid pruning method      GridPruning ... 3 (G Style)
Weight generation scheme         WeightScheme... Becke
Basis function cutoff            BFCut       ...    1.0000e-10
Integration weight cutoff        WCut        ...    1.0000e-14
Grids for H and He will be reduced by one unit

# of grid points (after initial pruning)     ...   8076 (   0.0 sec)
# of grid points (after weights+screening)   ...   7736 (   0.0 sec)
nearest neighbour list constructed           ...    0.0 sec
Grid point re-assignment to atoms done       ...    0.0 sec
Grid point division into batches done        ...    0.0 sec
Reduced shell lists constructed in    0.1 sec

Total number of grid points                  ...     7736
Total number of batches                      ...      124
Average number of points per batch           ...       62
Average number of grid points per atom       ...      967
Average number of shells per batch           ...    26.26 (87.55%)
Average number of basis functions per batch  ...    50.10 (86.39%)
Average number of large shells per batch     ...    22.66 (86.29%)
Average number of large basis fcns per batch ...    43.14 (86.11%)
Maximum spatial batch extension              ...  21.59, 25.60, 21.59 au
Average spatial batch extension              ...   4.67,  4.96,  4.24 au

Time for grid setup =    0.087 sec

------------------------------
INITIAL GUESS: MODEL POTENTIAL
------------------------------
Loading Hartree-Fock densities                     ... done
Calculating cut-offs                               ... done
Setting up the integral package                    ... done
Initializing the effective Hamiltonian             ... done
Starting the Coulomb interaction                   ... done (   0.0 sec)
Reading the grid                                   ... done
Mapping shells                                     ... done
Starting the XC term evaluation                    ... done (   0.1 sec)
  promolecular density results
     # of electrons  =     17.992853608
     EX              =    -12.048531706
     EC              =     -0.544811696
     EX+EC           =    -12.593343402
Transforming the Hamiltonian                       ... done (   0.0 sec)
Diagonalizing the Hamiltonian                      ... done (   0.0 sec)
Back transforming the eigenvectors                 ... done (   0.0 sec)
Now organizing SCF variables                       ... done
                      ------------------
                      INITIAL GUESS DONE (   0.3 sec)
                      ------------------
--------------
SCF ITERATIONS
--------------
ITER       Energy         Delta-E        Max-DP      RMS-DP      [F,P]     Damp
               ***  Starting incremental Fock matrix formation  ***
  0    -79.6561996574   0.000000000000 0.06235040  0.00369533  0.1829094 0.7000
  1    -79.7099755772  -0.053775919767 0.04208343  0.00280053  0.0950080 0.7000
                               ***Turning on DIIS***
  2    -79.7317407335  -0.021765156339 0.06407931  0.00476357  0.0357382 0.0000
  3    -79.7612806744  -0.029539940899 0.02706677  0.00176755  0.0511596 0.0000
  4    -79.7705393659  -0.009258691460 0.00776276  0.00056179  0.0119216 0.0000
                      *** Initiating the SOSCF procedure ***
                           *** Shutting down DIIS ***
                      *** Re-Reading the Fockian *** 
                      *** Removing any level shift *** 
ITER      Energy       Delta-E        Grad      Rot      Max-DP    RMS-DP
  5    -79.77108735  -0.0005479799  0.000907  0.000907  0.002707  0.000195
               *** Restarting incremental Fock matrix formation ***
  6    -79.77112708  -0.0000397355  0.000407  0.000806  0.001691  0.000125
  7    -79.77112718  -0.0000001008  0.000543  0.000316  0.000618  0.000036
  8    -79.77112987  -0.0000026912  0.000031  0.000032  0.000031  0.000003
                 **** Energy Check signals convergence ****
              ***Rediagonalizing the Fockian in SOSCF/NRSCF***

               *****************************************************
               *                     SUCCESS                       *
               *           SCF CONVERGED AFTER   9 CYCLES          *
               *****************************************************

Setting up the final grid:

General Integration Accuracy     IntAcc      ...  4.670
Radial Grid Type                 RadialGrid  ... Gauss-Chebyshev
Angular Grid (max. acc.)         AngularGrid ... Lebedev-302
Angular grid pruning method      GridPruning ... 3 (G Style)
Weight generation scheme         WeightScheme... Becke
Basis function cutoff            BFCut       ...    1.0000e-10
Integration weight cutoff        WCut        ...    1.0000e-14
Grids for H and He will be reduced by one unit

# of grid points (after initial pruning)     ...  32788 (   0.0 sec)
# of grid points (after weights+screening)   ...  31299 (   0.1 sec)
nearest neighbour list constructed           ...    0.0 sec
Grid point re-assignment to atoms done       ...    0.0 sec
Grid point division into batches done        ...    0.1 sec
Reduced shell lists constructed in    0.4 sec

Total number of grid points                  ...    31299
Total number of batches                      ...      492
Average number of points per batch           ...       63
Average number of grid points per atom       ...     3912
Average number of shells per batch           ...    23.89 (79.63%)
Average number of basis functions per batch  ...    45.58 (78.58%)
Average number of large shells per batch     ...    20.22 (84.62%)
Average number of large basis fcns per batch ...    38.20 (83.82%)
Maximum spatial batch extension              ...  19.50, 18.01, 20.64 au
Average spatial batch extension              ...   2.94,  2.95,  2.89 au

Final grid set up in    0.4 sec
Final integration                            ... done (   0.3 sec)
Change in XC energy                          ...    -0.000387724
Integrated number of electrons               ...    17.999992190
Previous integrated no of electrons          ...    17.998505987

----------------
TOTAL SCF ENERGY
----------------

Total Energy       :          -79.77151760 Eh           -2170.69335 eV

Components:
Nuclear Repulsion  :           42.42686968 Eh            1154.49382 eV
Electronic Energy  :         -122.19838728 Eh           -3325.18717 eV
One Electron Energy:         -189.69130458 Eh           -5161.76282 eV
Two Electron Energy:           67.49291730 Eh            1836.57565 eV

Virial components:
Potential Energy   :         -159.01400138 Eh           -4326.99096 eV
Kinetic Energy     :           79.24248378 Eh            2156.29761 eV
Virial Ratio       :            2.00667614


DFT components:
N(Alpha)           :        8.999996095144 electrons
N(Beta)            :        8.999996095144 electrons
N(Total)           :       17.999992190287 electrons
E(X)               :       -9.894232022171 Eh       
E(C)               :       -0.655131534258 Eh       
E(XC)              :      -10.549363556429 Eh       

---------------
SCF CONVERGENCE
---------------

  Last Energy change         ...   -6.0951e-09  Tolerance :   1.0000e-06
  Last MAX-Density change    ...    8.1099e-06  Tolerance :   1.0000e-05
  Last RMS-Density change    ...    8.6173e-07  Tolerance :   1.0000e-06
  Last Orbital Gradient      ...    1.2619e-05  Tolerance :   5.0000e-05
  Last Orbital Rotation      ...    1.0240e-05  Tolerance :   5.0000e-05

             **** THE GBW FILE WAS UPDATED (etano.gbw) ****
             **** DENSITY FILE WAS UPDATED (etano.scfp.tmp) ****
             **** ENERGY FILE WAS UPDATED (etano.en.tmp) ****
----------------
ORBITAL ENERGIES
----------------

  NO   OCC          E(Eh)            E(eV) 
   0   2.0000     -10.162478      -276.5351 
   1   2.0000     -10.162309      -276.5305 
   2   2.0000      -0.748606       -20.3706 
   3   2.0000      -0.605211       -16.4686 
   4   2.0000      -0.429899       -11.6981 
   5   2.0000      -0.429862       -11.6971 
   6   2.0000      -0.358486        -9.7549 
   7   2.0000      -0.335151        -9.1199 
   8   2.0000      -0.335101        -9.1186 
   9   0.0000       0.106044         2.8856 
  10   0.0000       0.163868         4.4591 
  11   0.0000       0.167408         4.5554 
  12   0.0000       0.167781         4.5656 
  13   0.0000       0.191385         5.2079 
  14   0.0000       0.192541         5.2393 
  15   0.0000       0.250470         6.8156 
  16   0.0000       0.507272        13.8036 
  17   0.0000       0.548336        14.9210 
  18   0.0000       0.549720        14.9586 
  19   0.0000       0.615408        16.7461 
  20   0.0000       0.616756        16.7828 
  21   0.0000       0.680450        18.5160 
  22   0.0000       0.867357        23.6020 
  23   0.0000       0.867661        23.6103 
  24   0.0000       0.883406        24.0387 
  25   0.0000       0.902866        24.5682 
  26   0.0000       0.903801        24.5937 
  27   0.0000       0.960052        26.1243 
  28   0.0000       1.083253        29.4768 
  29   0.0000       1.328418        36.1481 
  30   0.0000       1.328709        36.1560 
  31   0.0000       1.454307        39.5737 
  32   0.0000       1.696019        46.1510 
  33   0.0000       1.696587        46.1665 
  34   0.0000       1.891832        51.4794 
  35   0.0000       2.057148        55.9779 
  36   0.0000       2.057789        55.9953 
  37   0.0000       2.069403        56.3113 
  38   0.0000       2.069629        56.3175 
  39   0.0000       2.076168        56.4954 
  40   0.0000       2.076576        56.5065 
  41   0.0000       2.284044        62.1520 
  42   0.0000       2.284135        62.1545 
  43   0.0000       2.343538        63.7709 
  44   0.0000       2.496159        67.9239 
  45   0.0000       2.496497        67.9331 
  46   0.0000       2.688208        73.1499 
  47   0.0000       2.754958        74.9662 
  48   0.0000       2.808442        76.4216 
  49   0.0000       2.808746        76.4299 
  50   0.0000       2.923356        79.5486 
  51   0.0000       2.923607        79.5554 
  52   0.0000       3.159269        85.9681 
  53   0.0000       3.255025        88.5737 
  54   0.0000       3.389574        92.2350 
  55   0.0000       3.389675        92.2377 
  56   0.0000       3.534516        96.1791 
  57   0.0000       3.534708        96.1843 

                    ********************************
                    * MULLIKEN POPULATION ANALYSIS *
                    ********************************

-----------------------
MULLIKEN ATOMIC CHARGES
-----------------------
   0 C :   -0.300929
   1 C :   -0.300928
   2 H :    0.101732
   3 H :    0.098780
   4 H :    0.100417
   5 H :    0.100415
   6 H :    0.098781
   7 H :    0.101732
Sum of atomic charges:   -0.0000000

--------------------------------
MULLIKEN REDUCED ORBITAL CHARGES
--------------------------------
  0 C s       :     3.235896  s :     3.235896
      pz      :     1.039791  p :     3.032427
      px      :     0.995262
      py      :     0.997374
      dz2     :     0.006342  d :     0.032605
      dxz     :     0.010414
      dyz     :     0.001991
      dx2y2   :     0.006772
      dxy     :     0.007087
  1 C s       :     3.235898  s :     3.235898
      pz      :     1.039789  p :     3.032425
      px      :     0.995262
      py      :     0.997374
      dz2     :     0.006342  d :     0.032605
      dxz     :     0.010414
      dyz     :     0.001991
      dx2y2   :     0.006772
      dxy     :     0.007087
  2 H s       :     0.886991  s :     0.886991
      pz      :     0.004483  p :     0.011277
      px      :     0.004345
      py      :     0.002449
  3 H s       :     0.889940  s :     0.889940
      pz      :     0.002491  p :     0.011280
      px      :     0.002840
      py      :     0.005949
  4 H s       :     0.888299  s :     0.888299
      pz      :     0.005697  p :     0.011284
      px      :     0.003274
      py      :     0.002313
  5 H s       :     0.888301  s :     0.888301
      pz      :     0.005697  p :     0.011284
      px      :     0.003274
      py      :     0.002313
  6 H s       :     0.889939  s :     0.889939
      pz      :     0.002491  p :     0.011280
      px      :     0.002840
      py      :     0.005949
  7 H s       :     0.886990  s :     0.886990
      pz      :     0.004483  p :     0.011277
      px      :     0.004345
      py      :     0.002449


                     *******************************
                     * LOEWDIN POPULATION ANALYSIS *
                     *******************************

----------------------
LOEWDIN ATOMIC CHARGES
----------------------
   0 C :   -0.199586
   1 C :   -0.199586
   2 H :    0.066932
   3 H :    0.066108
   4 H :    0.066546
   5 H :    0.066546
   6 H :    0.066108
   7 H :    0.066932

-------------------------------
LOEWDIN REDUCED ORBITAL CHARGES
-------------------------------
  0 C s       :     2.910618  s :     2.910618
      pz      :     1.089339  p :     3.222577
      px      :     1.065759
      py      :     1.067479
      dz2     :     0.012856  d :     0.066391
      dxz     :     0.020037
      dyz     :     0.003748
      dx2y2   :     0.013359
      dxy     :     0.016391
  1 C s       :     2.910620  s :     2.910620
      pz      :     1.089337  p :     3.222576
      px      :     1.065759
      py      :     1.067480
      dz2     :     0.012856  d :     0.066391
      dxz     :     0.020037
      dyz     :     0.003748
      dx2y2   :     0.013359
      dxy     :     0.016391
  2 H s       :     0.895089  s :     0.895089
      pz      :     0.015656  p :     0.037979
      px      :     0.014922
      py      :     0.007401
  3 H s       :     0.895937  s :     0.895937
      pz      :     0.007286  p :     0.037955
      px      :     0.009195
      py      :     0.021473
  4 H s       :     0.895486  s :     0.895486
      pz      :     0.020745  p :     0.037968
      px      :     0.010549
      py      :     0.006674
  5 H s       :     0.895486  s :     0.895486
      pz      :     0.020744  p :     0.037967
      px      :     0.010549
      py      :     0.006674
  6 H s       :     0.895937  s :     0.895937
      pz      :     0.007286  p :     0.037955
      px      :     0.009195
      py      :     0.021474
  7 H s       :     0.895089  s :     0.895089
      pz      :     0.015656  p :     0.037979
      px      :     0.014922
      py      :     0.007401


                      *****************************
                      * MAYER POPULATION ANALYSIS *
                      *****************************

  NA   - Mulliken gross atomic population
  ZA   - Total nuclear charge
  QA   - Mulliken gross atomic charge
  VA   - Mayer's total valence
  BVA  - Mayer's bonded valence
  FA   - Mayer's free valence

  ATOM       NA         ZA         QA         VA         BVA        FA
  0 C      6.3009     6.0000    -0.3009     3.9123     3.9123    -0.0000
  1 C      6.3009     6.0000    -0.3009     3.9123     3.9123     0.0000
  2 H      0.8983     1.0000     0.1017     0.9542     0.9542     0.0000
  3 H      0.9012     1.0000     0.0988     0.9543     0.9543     0.0000
  4 H      0.8996     1.0000     0.1004     0.9543     0.9543    -0.0000
  5 H      0.8996     1.0000     0.1004     0.9543     0.9543    -0.0000
  6 H      0.9012     1.0000     0.0988     0.9543     0.9543     0.0000
  7 H      0.8983     1.0000     0.1017     0.9542     0.9542     0.0000

  Mayer bond orders larger than 0.1
B(  0-C ,  1-C ) :   1.0207 B(  0-C ,  2-H ) :   0.9718 B(  0-C ,  3-H ) :   0.9717 
B(  0-C ,  4-H ) :   0.9718 B(  1-C ,  5-H ) :   0.9718 B(  1-C ,  6-H ) :   0.9717 
B(  1-C ,  7-H ) :   0.9718 

-------
TIMINGS
-------

Total SCF time: 0 days 0 hours 0 min 6 sec 

Total time                  ....       6.768 sec
Sum of individual times     ....       6.751 sec  ( 99.7%)

Fock matrix formation       ....       5.950 sec  ( 87.9%)
  XC integration            ....       1.262 sec  ( 21.2% of F)
    Basis function eval.    ....       0.595 sec  ( 47.1% of XC)
    Density eval.           ....       0.220 sec  ( 17.4% of XC)
    XC-Functional eval.     ....       0.185 sec  ( 14.6% of XC)
    XC-Potential eval.      ....       0.223 sec  ( 17.7% of XC)
Diagonalization             ....       0.011 sec  (  0.2%)
Density matrix formation    ....       0.001 sec  (  0.0%)
Population analysis         ....       0.002 sec  (  0.0%)
Initial guess               ....       0.253 sec  (  3.7%)
Orbital Transformation      ....       0.000 sec  (  0.0%)
Orbital Orthonormalization  ....       0.000 sec  (  0.0%)
DIIS solution               ....       0.002 sec  (  0.0%)
SOSCF solution              ....       0.004 sec  (  0.1%)
Grid generation             ....       0.528 sec  (  7.8%)

-------------------------   --------------------
FINAL SINGLE POINT ENERGY       -79.771517603019
-------------------------   --------------------


                            ***************************************
                            *     ORCA property calculations      *
                            ***************************************

                                    ---------------------
                                    Active property flags
                                    ---------------------
   (+) Dipole Moment


------------------------------------------------------------------------------
                       ORCA ELECTRIC PROPERTIES CALCULATION
------------------------------------------------------------------------------

Dipole Moment Calculation                       ... on
Quadrupole Moment Calculation                   ... off
Polarizability Calculation                      ... off
GBWName                                         ... etano.gbw
Electron density file                           ... etano.scfp.tmp
The origin for moment calculation is the CENTER OF MASS  = (-8.760213,  0.025520  0.000001)

-------------
DIPOLE MOMENT
-------------
                                X             Y             Z
Electronic contribution:     -0.00000       0.00001      -0.00002
Nuclear contribution   :      0.00000      -0.00001       0.00001
                        -----------------------------------------
Total Dipole Moment    :     -0.00000      -0.00000      -0.00000
                        -----------------------------------------
Magnitude (a.u.)       :      0.00000
Magnitude (Debye)      :      0.00001


-------------------------------------------------------------------------------
                               ORCA SCF HESSIAN
-------------------------------------------------------------------------------

Hessian of the Kohn-Sham DFT energy:
Kohn-Sham wavefunction type                      ... RKS
Hartree-Fock exchange scaling                    ...    0.200
Number of operators                              ...    1
Number of atoms                                  ...    8
Basis set dimensions                             ...   58
Integral neglect threshold                       ... 1.0e-10
Integral primitive cutoff                        ... 1.0e-11

Setting up DFT Hessian calculations              ... 
Electron density on the grid                     ... found on disk
Electron density on the final grid               ... found on disk
Building xc-kernel on the grid                   ... done   (      0.0 sec)
Building xc-kernel on the final grid             ... done   (      0.3 sec)
                                                     done   (      0.4 sec)

Nuclear repulsion Hessian                        ... done   (      0.0 sec)

----------------------------------------------
Forming right-hand sides of CP-SCF equations     ...
----------------------------------------------
One electron integral derivatives                ... done   (      0.2 sec)
Transforming the overlap derivative matrices     ... done   (      0.0 sec)
Making the Q(x) pseudodensities                  ... done   (      0.0 sec)
Adding the E*S(x)*S(y) terms to the Hessian      ... done   (      0.0 sec)
Calculating energy weighted overlap derivatives  ... done   (      0.0 sec)
Two electron integral derivatives                ... done   (      1.8 sec)
Exchange-correlation integral derivatives        ... done   (      9.3 sec)
tr(F(y)Q(x)) contribution to the Hessian         ... done   (      0.0 sec)
Response fock operator R(S(x))                   ... done   (      2.2 sec)
XC Response fock operator R(S(x))                ... done   (      3.5 sec)
tr(F(y)S(x)) contribution to the Hessian         ... done   (      0.0 sec)
Transforming and finalizing RHSs                 ... done   (      0.0 sec)

----------------------------------------------
Solving the CP-SCF equations                     ...
----------------------------------------------
     CP-SCF ITERATION   0: 
     CP-SCF ITERATION   1:      0.000157933553
     CP-SCF ITERATION   2:      0.000005459781
     CP-SCF ITERATION   3:      0.000000934201

                                                 ... done   (     17.9 sec)
Forming perturbed density Hessian contributions  ... done   (      0.0 sec)
Making the perturbed densities                   ... done   (      0.0 sec)
2nd integral derivative contribs                 ... done   (     10.3 sec)
Exchange-correlation Hessian                     ... done   (     13.6 sec)
Dipol derivatives                                ... done   (      0.3 sec)

Total SCF Hessian time: 0 days 0 hours 0 min 59 sec 

Writing the Hessian file to the disk             ... done


-----------------------
VIBRATIONAL FREQUENCIES
-----------------------

   0:         0.00 cm**-1
   1:         0.00 cm**-1
   2:         0.00 cm**-1
   3:         0.00 cm**-1
   4:         0.00 cm**-1
   5:         0.00 cm**-1
   6:       334.86 cm**-1
   7:       833.74 cm**-1
   8:       834.18 cm**-1
   9:      1055.83 cm**-1
  10:      1237.42 cm**-1
  11:      1237.49 cm**-1
  12:      1412.35 cm**-1
  13:      1439.96 cm**-1
  14:      1512.18 cm**-1
  15:      1512.59 cm**-1
  16:      1518.13 cm**-1
  17:      1518.33 cm**-1
  18:      3048.35 cm**-1
  19:      3048.77 cm**-1
  20:      3109.11 cm**-1
  21:      3109.58 cm**-1
  22:      3134.04 cm**-1
  23:      3134.46 cm**-1


------------
NORMAL MODES
------------

These modes are the cartesian displacements weighted by the diagonal matrix
M(i,i)=1/sqrt(m[i]) where m[i] is the mass of the displaced atom
Thus, these vectors are normalized but *not* orthogonal

                  0          1          2          3          4          5    
      0       0.000000   0.000000   0.000000   0.000000   0.000000   0.000000
      1       0.000000   0.000000   0.000000   0.000000   0.000000   0.000000
      2       0.000000   0.000000   0.000000   0.000000   0.000000   0.000000
      3       0.000000   0.000000   0.000000   0.000000   0.000000   0.000000
      4       0.000000   0.000000   0.000000   0.000000   0.000000   0.000000
      5       0.000000   0.000000   0.000000   0.000000   0.000000   0.000000
      6       0.000000   0.000000   0.000000   0.000000   0.000000   0.000000
      7       0.000000   0.000000   0.000000   0.000000   0.000000   0.000000
      8       0.000000   0.000000   0.000000   0.000000   0.000000   0.000000
      9       0.000000   0.000000   0.000000   0.000000   0.000000   0.000000
     10       0.000000   0.000000   0.000000   0.000000   0.000000   0.000000
     11       0.000000   0.000000   0.000000   0.000000   0.000000   0.000000
     12       0.000000   0.000000   0.000000   0.000000   0.000000   0.000000
     13       0.000000   0.000000   0.000000   0.000000   0.000000   0.000000
     14       0.000000   0.000000   0.000000   0.000000   0.000000   0.000000
     15       0.000000   0.000000   0.000000   0.000000   0.000000   0.000000
     16       0.000000   0.000000   0.000000   0.000000   0.000000   0.000000
     17       0.000000   0.000000   0.000000   0.000000   0.000000   0.000000
     18       0.000000   0.000000   0.000000   0.000000   0.000000   0.000000
     19       0.000000   0.000000   0.000000   0.000000   0.000000   0.000000
     20       0.000000   0.000000   0.000000   0.000000   0.000000   0.000000
     21       0.000000   0.000000   0.000000   0.000000   0.000000   0.000000
     22       0.000000   0.000000   0.000000   0.000000   0.000000   0.000000
     23       0.000000   0.000000   0.000000   0.000000   0.000000   0.000000
                  6          7          8          9         10         11    
      0      -0.000020  -0.023615  -0.022287  -0.217620  -0.025804   0.096087
      1       0.000025   0.025017   0.023538  -0.206063   0.027271  -0.101962
      2      -0.000027  -0.032395   0.034380   0.000028   0.140070   0.037543
      3      -0.000018  -0.023614  -0.022287   0.217621   0.025800  -0.096089
      4       0.000024   0.025016   0.023537   0.206063  -0.027273   0.101959
      5      -0.000028  -0.032393   0.034378  -0.000027  -0.140072  -0.037545
      6      -0.211739   0.128050  -0.296104  -0.258392  -0.362608   0.023405
      7       0.223571  -0.106275  -0.426545  -0.264269  -0.264204   0.292321
      8      -0.267820   0.151543  -0.108103  -0.016070  -0.111832  -0.139960
      9      -0.053509   0.382704   0.276417  -0.282137   0.062296  -0.390460
     10       0.056743   0.221090   0.102865  -0.238476  -0.015882  -0.305201
     11       0.400723   0.141537  -0.170470  -0.004342  -0.260653  -0.027842
     12       0.265476  -0.229380   0.285257  -0.263046   0.385863   0.050858
     13      -0.280608  -0.412912   0.043212  -0.259284   0.190340   0.349934
     14      -0.132577   0.092917  -0.131083   0.020143  -0.089266   0.044090
     15       0.265470  -0.229370   0.285243   0.263049  -0.385859  -0.050861
     16      -0.280601  -0.412892   0.043208   0.259290  -0.190336  -0.349920
     17      -0.132576   0.092910  -0.131076  -0.020144   0.089258  -0.044094
     18      -0.053508   0.382707   0.276418   0.282132  -0.062284   0.390484
     19       0.056740   0.221089   0.102867   0.238472   0.015885   0.305215
     20       0.400728   0.141540  -0.170468   0.004337   0.260663   0.027865
     21      -0.211737   0.128050  -0.296103   0.258388   0.362636  -0.023402
     22       0.223574  -0.106272  -0.426542   0.264266   0.264216  -0.292313
     23      -0.267821   0.151544  -0.108106   0.016067   0.111856   0.139960
                 12         13         14         15         16         17    
      0      -0.067635  -0.084323   0.003561   0.013343  -0.005505  -0.033739
      1      -0.064279  -0.079595  -0.003237  -0.013694   0.005462   0.035240
      2      -0.000142  -0.000166  -0.019120   0.004869   0.048804  -0.007788
      3      -0.067625   0.084329  -0.003546  -0.013323  -0.005512  -0.033751
      4      -0.064274   0.079602   0.003224   0.013672   0.005471   0.035250
      5      -0.000136   0.000165   0.019121  -0.004884   0.048801  -0.007781
      6       0.194943   0.185314  -0.031483  -0.297253  -0.048367   0.285195
      7       0.331663   0.330707  -0.350113   0.118840   0.332074  -0.124665
      8       0.122042   0.129667   0.065370  -0.322485  -0.100420   0.335965
      9       0.379604   0.382080  -0.048756   0.293392   0.077298  -0.243890
     10       0.139693   0.128773   0.073121   0.116154  -0.068698  -0.070846
     11       0.032784   0.035146   0.474556  -0.003962  -0.504397  -0.040761
     12       0.231350   0.224302  -0.015426  -0.366289   0.036629   0.360660
     13       0.294573   0.292303   0.372319   0.151788  -0.328424  -0.224324
     14      -0.153155  -0.162567  -0.004758   0.191281   0.023284  -0.202364
     15       0.231340  -0.224330   0.015272   0.366088   0.036779   0.360881
     16       0.294559  -0.292339  -0.372226  -0.151526  -0.328520  -0.224564
     17      -0.153133   0.162578   0.004838  -0.191186   0.023201  -0.202475
     18       0.379567  -0.382116   0.048845  -0.293282   0.077173  -0.244024
     19       0.139671  -0.128782  -0.073085  -0.116082  -0.068744  -0.070936
     20       0.032760  -0.035136  -0.474512   0.004194  -0.504418  -0.040964
     21       0.194910  -0.185323   0.031367   0.297115  -0.048236   0.285371
     22       0.331644  -0.330745   0.350141  -0.118909   0.332032  -0.124592
     23       0.122016  -0.129669  -0.065502   0.322344  -0.100281   0.336123
                 18         19         20         21         22         23    
      0      -0.025045  -0.025197  -0.042701  -0.014194   0.043099  -0.014661
      1      -0.024022  -0.024045   0.044890   0.014932  -0.045394   0.015450
      2      -0.000006   0.000018  -0.020515   0.061936   0.021345   0.062671
      3       0.026281  -0.023933   0.042686   0.014175   0.043092  -0.014699
      4       0.025180  -0.022804  -0.044900  -0.014888  -0.045406   0.015473
      5       0.000033  -0.000019   0.020593  -0.062044   0.021265   0.062565
      6       0.265110   0.277939   0.143756   0.361667  -0.142089   0.363873
      7      -0.086298  -0.092694  -0.038656  -0.112873   0.037891  -0.110238
      8      -0.281524  -0.297076  -0.166813  -0.371335   0.161131  -0.372646
      9      -0.156432  -0.166150   0.216066   0.025856  -0.213272   0.027369
     10       0.360237   0.376972  -0.516289  -0.064397   0.517670  -0.068621
     11      -0.071932  -0.075592   0.100057   0.027465  -0.100054   0.025652
     12       0.180287   0.188213   0.154011  -0.216772  -0.158193  -0.216551
     13       0.003492   0.002014   0.014601  -0.002374  -0.014658  -0.005236
     14       0.353460   0.372450   0.313703  -0.401341  -0.315422  -0.399773
     15      -0.189578   0.179175  -0.154212   0.217153  -0.157818  -0.216025
     16      -0.003591   0.001842  -0.014607   0.002393  -0.014645  -0.005212
     17      -0.371844   0.354724  -0.314070   0.402065  -0.314713  -0.398766
     18       0.164460  -0.158066  -0.216190  -0.025564  -0.213288   0.027526
     19      -0.378437   0.358356   0.516575   0.063703   0.517709  -0.068997
     20       0.075583  -0.071879  -0.100094  -0.027346  -0.100074   0.025703
     21      -0.278579   0.264307  -0.143252  -0.362113  -0.142368   0.363647
     22       0.090792  -0.088251   0.038498   0.113018   0.037979  -0.110161
     23       0.295931  -0.282610   0.166296   0.371778   0.161407  -0.372438


-----------
IR SPECTRUM
-----------

 Mode    freq (cm**-1)   T**2         TX         TY         TZ
-------------------------------------------------------------------
   6:       334.86    0.000901  ( -0.013755   0.026378  -0.004052)
   7:       833.74    3.914978  (  0.971505  -1.070258   1.351186)
   8:       834.18    3.559743  (  0.870635  -1.009372  -1.335255)
   9:      1055.83    0.000000  (  0.000016   0.000011   0.000006)
  10:      1237.42    0.000000  (  0.000027  -0.000012   0.000000)
  11:      1237.49    0.000000  ( -0.000025   0.000032   0.000025)
  12:      1412.35    0.605073  (  0.579904   0.516665  -0.042907)
  13:      1439.96    0.000000  ( -0.000021  -0.000047   0.000031)
  14:      1512.18    0.000000  ( -0.000385   0.000373   0.000005)
  15:      1512.59    0.000001  ( -0.000552   0.000581   0.000422)
  16:      1518.13    7.087772  (  0.348655  -0.358493  -2.614898)
  17:      1518.33    6.556350  (  1.760978  -1.814334   0.404350)
  18:      3048.35    0.036327  (  0.137991   0.131459   0.001906)
  19:      3048.77   58.444663  ( -5.507625  -5.301954  -0.003243)
  20:      3109.11    0.000028  ( -0.001520  -0.001154   0.004968)
  21:      3109.58    0.000059  ( -0.000759   0.003356  -0.006889)
  22:      3134.04   70.461175  (  5.483037  -5.751989   2.704088)
  23:      3134.46   70.048468  ( -1.860554   1.943590   7.925230)

The first frequency considered to be a vibration is 6
The total number of vibrations considered is 18


--------------------------
THERMOCHEMISTRY AT 298.15K
--------------------------

Temperature         ... 298.15 K
Pressure            ... 1.00 atm
Total Mass          ... 30.07 AMU

Throughout the following assumptions are being made:
  (1) The electronic state is orbitally nondegenerate
  (2) There are no thermally accessible electronically excited states
  (3) Hindered rotations indicated by low frequency modes are not
      treated as such but are treated as vibrations and this may
      cause some error
  (4) All equations used are the standard statistical mechanics
      equations for an ideal gas
  (5) All vibrations are strictly harmonic

freq.     334.86  E(vib)   ...       0.24 
freq.     833.74  E(vib)   ...       0.04 
freq.     834.18  E(vib)   ...       0.04 
freq.    1055.83  E(vib)   ...       0.02 
freq.    1237.42  E(vib)   ...       0.01 
freq.    1237.49  E(vib)   ...       0.01 
freq.    1412.35  E(vib)   ...       0.00 
freq.    1439.96  E(vib)   ...       0.00 
freq.    1512.18  E(vib)   ...       0.00 
freq.    1512.59  E(vib)   ...       0.00 
freq.    1518.13  E(vib)   ...       0.00 
freq.    1518.33  E(vib)   ...       0.00 
freq.    3048.35  E(vib)   ...       0.00 
freq.    3048.77  E(vib)   ...       0.00 
freq.    3109.11  E(vib)   ...       0.00 
freq.    3109.58  E(vib)   ...       0.00 
freq.    3134.04  E(vib)   ...       0.00 
freq.    3134.46  E(vib)   ...       0.00 

------------
INNER ENERGY
------------

The inner energy is: U= E(el) + E(ZPE) + E(vib) + E(rot) + E(trans)
    E(el)   - is the total energy from the electronic structure calculation
              = E(kin-el) + E(nuc-el) + E(el-el) + E(nuc-nuc)
    E(ZPE)  - the the zero temperature vibrational energy from the frequency calculation
    E(vib)  - the the finite temperature correction to E(ZPE) due to population
              of excited vibrational states
    E(rot)  - is the rotational thermal energy
    E(trans)- is the translational thermal energy

Summary of contributions to the inner energy U:
Electronic energy                ...    -79.77151760 Eh
Zero point energy                ...      0.07525102 Eh      47.22 kcal/mol
Thermal vibrational correction   ...      0.00060703 Eh       0.38 kcal/mol
Thermal rotational correction    ...      0.00141627 Eh       0.89 kcal/mol
Thermal translational correction ...      0.00141627 Eh       0.89 kcal/mol
-----------------------------------------------------------------------
Total thermal energy                    -79.69282701 Eh


Summary of corrections to the electronic energy:
(perhaps to be used in another calculation)
Total thermal correction                  0.00343957 Eh       2.16 kcal/mol
Non-thermal (ZPE) correction              0.07525102 Eh      47.22 kcal/mol
-----------------------------------------------------------------------
Total correction                          0.07869059 Eh      49.38 kcal/mol


--------
ENTHALPY
--------

The enthalpy is H = U + kB*T
                kB is Boltzmann's constant
Total free energy                 ...    -79.69282701 Eh 
Thermal Enthalpy correction       ...      0.00094421 Eh       0.59 kcal/mol
-----------------------------------------------------------------------
Total Enthalpy                    ...    -79.69188280 Eh


Vibrational entropy computed according to the QRRHO of S. Grimme
Chem.Eur.J. 2012 18 9955


-------
ENTROPY
-------

The entropy contributions are T*S = T*(S(el)+S(vib)+S(rot)+S(trans)
     S(el)   - electronic entropy
     S(vib)  - vibrational entropy
     S(rot)  - rotational entropy
     S(trans)- translational entropy
The entropies will be listed as mutliplied by the temperature to get
units of energy

Electronic entropy                ...      0.00000000 Eh      0.00 kcal/mol
Vibrational entropy               ...      0.00086705 Eh      0.54 kcal/mol
Rotational entropy                ...      0.00837561 Eh      5.26 kcal/mol
Translational entropy             ...      0.01716939 Eh     10.77 kcal/mol
-----------------------------------------------------------------------
Final entropy term                ...      0.02641205 Eh     16.57 kcal/mol


CAUTION: The rotational entropy is not quite correctly treated here
         because it includes a symmetry number that is not yet correctly
         implemented in ORCA!
For a nonlinear molecule the correct rotational entropy is:
    S(rot) = R*(ln(qrot/sn)+1.5)
    R    = 8.31441 J/mol/K = 1.987191683e-3 kcal/mol/K
    qrot = 4766.5753016
    sn is the rotational symmetry number. We have assumed 3 here
       if it is different for your molecule then you should correct
       the printed rotational entropy by manually evaluating the equation
       as given above

For convenience we print out the resulting values for sn=1 - 12:
 sn= 1  qrot/sn=    4766.5753 T*S(rot)=     5.91 kcal/mol T*S(tot)=    17.22 kcal/mol
 sn= 2  qrot/sn=    2383.2877 T*S(rot)=     5.50 kcal/mol T*S(tot)=    16.81 kcal/mol
 sn= 3  qrot/sn=    1588.8584 T*S(rot)=     5.26 kcal/mol T*S(tot)=    16.57 kcal/mol
 sn= 4  qrot/sn=    1191.6438 T*S(rot)=     5.09 kcal/mol T*S(tot)=    16.40 kcal/mol
 sn= 5  qrot/sn=     953.3151 T*S(rot)=     4.95 kcal/mol T*S(tot)=    16.27 kcal/mol
 sn= 6  qrot/sn=     794.4292 T*S(rot)=     4.85 kcal/mol T*S(tot)=    16.16 kcal/mol
 sn= 7  qrot/sn=     680.9393 T*S(rot)=     4.75 kcal/mol T*S(tot)=    16.07 kcal/mol
 sn= 8  qrot/sn=     595.8219 T*S(rot)=     4.67 kcal/mol T*S(tot)=    15.99 kcal/mol
 sn= 9  qrot/sn=     529.6195 T*S(rot)=     4.60 kcal/mol T*S(tot)=    15.92 kcal/mol
 sn=10  qrot/sn=     476.6575 T*S(rot)=     4.54 kcal/mol T*S(tot)=    15.86 kcal/mol
 sn=11  qrot/sn=     433.3250 T*S(rot)=     4.49 kcal/mol T*S(tot)=    15.80 kcal/mol
 sn=12  qrot/sn=     397.2146 T*S(rot)=     4.43 kcal/mol T*S(tot)=    15.75 kcal/mol


-------------------
GIBBS FREE ENTHALPY
-------------------

The Gibbs free enthalpy is G = H - T*S

Total enthalpy                    ...    -79.69188280 Eh 
Total entropy correction          ...     -0.02641205 Eh    -16.57 kcal/mol
-----------------------------------------------------------------------
Final Gibbs free enthalpy         ...    -79.71829486 Eh

For completeness - the Gibbs free enthalpy minus the electronic energy
G-E(el)                           ...      0.05322275 Eh     33.40 kcal/mol


Timings for individual modules:

Sum of individual times         ...       66.852 sec (=   1.114 min)
GTO integral calculation        ...        0.451 sec (=   0.008 min)   0.7 %
SCF iterations                  ...        6.800 sec (=   0.113 min)  10.2 %
Analytical frequency calculation...       59.601 sec (=   0.993 min)  89.2 %
                             ****ORCA TERMINATED NORMALLY****
TOTAL RUN TIME: 0 days 0 hours 1 minutes 7 seconds 177 msec
