
                                 *****************
                                 * O   R   C   A *
                                 *****************

           --- An Ab Initio, DFT and Semiempirical electronic structure package ---

                  #######################################################
                  #                        -***-                        #
                  #  Department of molecular theory and spectroscopy    #
                  #              Directorship: Frank Neese              #
                  # Max Planck Institute for Chemical Energy Conversion #
                  #                  D-45470 Muelheim/Ruhr              #
                  #                       Germany                       #
                  #                                                     #
                  #                  All rights reserved                #
                  #                        -***-                        #
                  #######################################################


                         Program Version 4.0.1 -  RELEASE  -


 With contributions from (in alphabetic order):
   Daniel Aravena         : Magnetic Properties
   Michael Atanasov       : Ab Initio Ligand Field Theory
   Ute Becker             : Parallelization
   Martin Brehm           : Molecular dynamics
   Dmytro Bykov           : SCF Hessian
   Vijay G. Chilkuri      : MRCI spin determinant printing
   Dipayan Datta          : RHF DLPNO-CCSD density
   Achintya Kumar Dutta   : EOM-CC, STEOM-CC
   Dmitry Ganyushin       : Spin-Orbit,Spin-Spin,Magnetic field MRCI
   Yang Guo               : DLPNO-NEVPT2, CIM, IAO-localization
   Andreas Hansen         : Spin unrestricted coupled pair/coupled cluster methods
   Lee Huntington         : MR-EOM, pCC
   Robert Izsak           : Overlap fitted RIJCOSX, COSX-SCS-MP3, EOM
   Christian Kollmar      : KDIIS, OOCD, Brueckner-CCSD(T), CCSD density
   Simone Kossmann        : Meta GGA functionals, TD-DFT gradient, OOMP2, MP2 Hessian
   Martin Krupicka        : AUTO-CI
   Dagmar Lenk            : GEPOL surface
   Dimitrios Liakos       : Extrapolation schemes; parallel MDCI
   Dimitrios Manganas     : ROCIS; embedding schemes
   Dimitrios Pantazis     : SARC Basis sets
   Taras Petrenko         : DFT Hessian,TD-DFT gradient, ASA, ECA, R-Raman, ABS, FL, XAS/XES, NRVS
   Peter Pinski           : DLPNO-MP2
   Christoph Reimann      : Effective Core Potentials
   Marius Retegan         : Local ZFS, SOC
   Christoph Riplinger    : Optimizer, TS searches, QM/MM, DLPNO-CCSD(T), (RO)-DLPNO pert. Triples
   Tobias Risthaus        : Range-separated hybrids, TD-DFT gradient, RPA, STAB
   Michael Roemelt        : Restricted open shell CIS
   Masaaki Saitow         : Open-shell DLPNO
   Barbara Sandhoefer     : DKH picture change effects
   Kantharuban Sivalingam : CASSCF convergence, NEVPT2, FIC-MRCI
   Georgi Stoychev        : AutoAux
   Boris Wezisla          : Elementary symmetry handling
   Frank Wennmohs         : Technical directorship


 We gratefully acknowledge several colleagues who have allowed us to
 interface, adapt or use parts of their codes:
   Stefan Grimme, W. Hujo, H. Kruse,             : VdW corrections, initial TS optimization,
                  C. Bannwarth                     DFT functionals, gCP, sTDA/sTD-DF
   Ed Valeev                                     : LibInt (2-el integral package), F12 methods
   Garnet Chan, S. Sharma, J. Yang, R. Olivares  : DMRG
   Ulf Ekstrom                                   : XCFun DFT Library
   Mihaly Kallay                                 : mrcc  (arbitrary order and MRCC methods)
   Andreas Klamt, Michael Diedenhofen            : otool_cosmo (COSMO solvation model)
   Jiri Pittner, Ondrej Demel                    : Mk-CCSD
   Frank Weinhold                                : gennbo (NPA and NBO analysis)
   Christopher J. Cramer and Donald G. Truhlar   : smd solvation model


 Your calculation uses the libint2 library for the computation of 2-el integrals
 For citations please refer to: http://libint.valeyev.net

 This ORCA versions uses:
   CBLAS   interface :  Fast vector & matrix operations
   LAPACKE interface :  Fast linear algebra routines
   SCALAPACK package :  Parallel linear algebra routines




*****************************************
The coordinations will be read from file: acetamida.xyz
*****************************************


Your calculation utilizes the basis: 6-31G(d,p)
   H-He, Li-Ne : W. J. Hehre, R. Ditchfield and J.A. Pople, J. Chem. Phys. 56, 2257 (1972).
                 Note: He and Ne are unpublished basis sets taken from the Gaussian program.
                 Note: Li and B from J. D. Dill and J. A. Pople, J. Chem. Phys. 62, 2921 (1975).
   Na - Ar     : M. M. Francl, W. J. Pietro, W. J. Hehre, J. S. Binkley, M. S. Gordon, 
                 D. J. DeFrees and J. A. Pople, J. Chem. Phys. 77, 3654 (1982).
   K - Zn      : V. A. Rassolov, J. A. Pople, M. A. Ratner, and T. L. Windus, J. Chem. Phys. 109, 1223 (1998).

================================================================================
                                        WARNINGS
                       Please study these warnings very carefully!
================================================================================

Warning: TCutStore was < 0. Adjusted to Thresh (uncritical)

INFO   : the flag for use of LIBINT has been found!

================================================================================
                                       INPUT FILE
================================================================================
NAME = acetamida.inp
|  1> ! B3LYP 6-31G(d,p) Freq
|  2> 
|  3> * xyzfile 0 1 acetamida.xyz
|  4> 
|  5>                          ****END OF INPUT****
================================================================================

                       ****************************
                       * Single Point Calculation *
                       ****************************

---------------------------------
CARTESIAN COORDINATES (ANGSTROEM)
---------------------------------
  C     -4.699030   -0.460890   -0.036580
  C     -3.683770    0.639570   -0.142460
  H     -5.707140   -0.038520   -0.069540
  H     -4.561410   -1.001890    0.903710
  H     -4.576560   -1.157510   -0.870300
  O     -2.855180    0.718160   -1.040080
  N     -3.747650    1.568440    0.852170
  H     -3.084210    2.331760    0.826730
  H     -4.420210    1.528460    1.604330

----------------------------
CARTESIAN COORDINATES (A.U.)
----------------------------
  NO LB      ZA    FRAG     MASS         X           Y           Z
   0 C     6.0000    0    12.011   -8.879880   -0.870956   -0.069126
   1 C     6.0000    0    12.011   -6.961316    1.208612   -0.269210
   2 H     1.0000    0     1.008  -10.784932   -0.072792   -0.131412
   3 H     1.0000    0     1.008   -8.619816   -1.893298    1.707764
   4 H     1.0000    0     1.008   -8.648445   -2.187377   -1.644629
   5 O     8.0000    0    15.999   -5.395508    1.357126   -1.965466
   6 N     7.0000    0    14.007   -7.082032    2.963922    1.610368
   7 H     1.0000    0     1.008   -5.828312    4.406388    1.562293
   8 H     1.0000    0     1.008   -8.352986    2.888371    3.031744

--------------------------------
INTERNAL COORDINATES (ANGSTROEM)
--------------------------------
 C      0   0   0     0.000000000000     0.00000000     0.00000000
 C      1   0   0     1.500991556805     0.00000000     0.00000000
 H      1   2   0     1.093512025814   109.77085582     0.00000000
 H      1   2   3     1.093510653126   109.77028892   239.65143132
 H      1   2   3     1.093328570787   109.72929980   119.82594995
 O      2   1   3     1.224115779083   123.82360162   240.17382834
 N      2   1   3     1.362412921327   114.62268770    60.17380298
 H      7   2   1     1.011660639543   117.73050076   180.00021334
 H      7   2   1     1.009792067507   123.23164269     0.00000000

---------------------------
INTERNAL COORDINATES (A.U.)
---------------------------
 C      0   0   0     0.000000000000     0.00000000     0.00000000
 C      1   0   0     2.836462971690     0.00000000     0.00000000
 H      1   2   0     2.066438252938   109.77085582     0.00000000
 H      1   2   3     2.066435658933   109.77028892   239.65143132
 H      1   2   3     2.066091573180   109.72929980   119.82594995
 O      2   1   3     2.313243578679   123.82360162   240.17382834
 N      2   1   3     2.574587302624   114.62268770    60.17380298
 H      7   2   1     1.911761549203   117.73050076   180.00021334
 H      7   2   1     1.908230459794   123.23164269     0.00000000

---------------------
BASIS SET INFORMATION
---------------------
There are 4 groups of distinct atoms

 Group   1 Type C   : 10s4p1d contracted to 3s2p1d pattern {631/31/1}
 Group   2 Type H   : 4s1p contracted to 2s1p pattern {31/1}
 Group   3 Type O   : 10s4p1d contracted to 3s2p1d pattern {631/31/1}
 Group   4 Type N   : 10s4p1d contracted to 3s2p1d pattern {631/31/1}

Atom   0C    basis set group =>   1
Atom   1C    basis set group =>   1
Atom   2H    basis set group =>   2
Atom   3H    basis set group =>   2
Atom   4H    basis set group =>   2
Atom   5O    basis set group =>   3
Atom   6N    basis set group =>   4
Atom   7H    basis set group =>   2
Atom   8H    basis set group =>   2
------------------------------------------------------------------------------
                           ORCA GTO INTEGRAL CALCULATION
------------------------------------------------------------------------------

                         BASIS SET STATISTICS AND STARTUP INFO

 # of primitive gaussian shells          ...   85
 # of primitive gaussian functions       ...  143
 # of contracted shells                  ...   39
 # of contracted basis functions         ...   81
 Highest angular momentum                ...    2
 Maximum contraction depth               ...    6
 Integral package used                   ... LIBINT
 Integral threshhold            Thresh   ...  1.000e-10
 Primitive cut-off              TCut     ...  1.000e-11


------------------------------ INTEGRAL EVALUATION ----------------------------


 * One electron integrals 
 Pre-screening matrix                    ... done
 Shell pair data                         ... done (   0.001 sec)

-------------------------------------------------------------------------------
                                 ORCA SCF
-------------------------------------------------------------------------------

------------
SCF SETTINGS
------------
Hamiltonian:
 Density Functional     Method          .... DFT(GTOs)
 Exchange Functional    Exchange        .... B88
   X-Alpha parameter    XAlpha          ....  0.666667
   Becke's b parameter  XBeta           ....  0.004200
 Correlation Functional Correlation     .... LYP
 LDA part of GGA corr.  LDAOpt          .... VWN-5
 Gradients option       PostSCFGGA      .... off
 Hybrid DFT is turned on
   Fraction HF Exchange ScalHFX         ....  0.200000
   Scaling of DF-GGA-X  ScalDFX         ....  0.720000
   Scaling of DF-GGA-C  ScalDFC         ....  0.810000
   Scaling of DF-LDA-C  ScalLDAC        ....  1.000000
   Perturbative correction              ....  0.000000
   NL short-range parameter             ....  4.800000


General Settings:
 Integral files         IntName         .... acetamida
 Hartree-Fock type      HFTyp           .... RHF
 Total Charge           Charge          ....    0
 Multiplicity           Mult            ....    1
 Number of Electrons    NEL             ....   32
 Basis Dimension        Dim             ....   81
 Nuclear Repulsion      ENuc            ....    121.8398508178 Eh

Convergence Acceleration:
 DIIS                   CNVDIIS         .... on
   Start iteration      DIISMaxIt       ....    12
   Startup error        DIISStart       ....  0.200000
   # of expansion vecs  DIISMaxEq       ....     5
   Bias factor          DIISBfac        ....   1.050
   Max. coefficient     DIISMaxC        ....  10.000
 Newton-Raphson         CNVNR           .... off
 SOSCF                  CNVSOSCF        .... on
   Start iteration      SOSCFMaxIt      ....   150
   Startup grad/error   SOSCFStart      ....  0.003300
 Level Shifting         CNVShift        .... on
   Level shift para.    LevelShift      ....    0.2500
   Turn off err/grad.   ShiftErr        ....    0.0010
 Zerner damping         CNVZerner       .... off
 Static damping         CNVDamp         .... on
   Fraction old density DampFac         ....    0.7000
   Max. Damping (<1)    DampMax         ....    0.9800
   Min. Damping (>=0)   DampMin         ....    0.0000
   Turn off err/grad.   DampErr         ....    0.1000
 Fernandez-Rico         CNVRico         .... off

SCF Procedure:
 Maximum # iterations   MaxIter         ....   125
 SCF integral mode      SCFMode         .... Direct
   Integral package                     .... LIBINT
 Reset frequeny         DirectResetFreq ....    20
 Integral Threshold     Thresh          ....  1.000e-10 Eh
 Primitive CutOff       TCut            ....  1.000e-11 Eh

Convergence Tolerance:
 Convergence Check Mode ConvCheckMode   .... Total+1el-Energy
 Convergence forced     ConvForced      .... 0
 Energy Change          TolE            ....  1.000e-06 Eh
 1-El. energy change                    ....  1.000e-03 Eh
 Orbital Gradient       TolG            ....  5.000e-05
 Orbital Rotation angle TolX            ....  5.000e-05
 DIIS Error             TolErr          ....  1.000e-06


Diagonalization of the overlap matrix:
Smallest eigenvalue                        ... 5.560e-03
Time for diagonalization                   ...    0.003 sec
Threshold for overlap eigenvalues          ... 1.000e-08
Number of eigenvalues below threshold      ... 0
Time for construction of square roots      ...    0.001 sec
Total time needed                          ...    0.004 sec

-------------------
DFT GRID GENERATION
-------------------

General Integration Accuracy     IntAcc      ...  4.340
Radial Grid Type                 RadialGrid  ... Gauss-Chebyshev
Angular Grid (max. acc.)         AngularGrid ... Lebedev-110
Angular grid pruning method      GridPruning ... 3 (G Style)
Weight generation scheme         WeightScheme... Becke
Basis function cutoff            BFCut       ...    1.0000e-10
Integration weight cutoff        WCut        ...    1.0000e-14
Grids for H and He will be reduced by one unit

# of grid points (after initial pruning)     ...  10700 (   0.0 sec)
# of grid points (after weights+screening)   ...  10230 (   0.0 sec)
nearest neighbour list constructed           ...    0.0 sec
Grid point re-assignment to atoms done       ...    0.0 sec
Grid point division into batches done        ...    0.0 sec
Reduced shell lists constructed in    0.1 sec

Total number of grid points                  ...    10230
Total number of batches                      ...      163
Average number of points per batch           ...       62
Average number of grid points per atom       ...     1137
Average number of shells per batch           ...    30.87 (79.16%)
Average number of basis functions per batch  ...    65.04 (80.30%)
Average number of large shells per batch     ...    25.50 (82.60%)
Average number of large basis fcns per batch ...    53.28 (81.92%)
Maximum spatial batch extension              ...  25.60, 23.42, 19.97 au
Average spatial batch extension              ...   4.51,  4.56,  4.24 au

Time for grid setup =    0.173 sec

------------------------------
INITIAL GUESS: MODEL POTENTIAL
------------------------------
Loading Hartree-Fock densities                     ... done
Calculating cut-offs                               ... done
Setting up the integral package                    ... done
Initializing the effective Hamiltonian             ... done
Starting the Coulomb interaction                   ... done (   0.1 sec)
Reading the grid                                   ... done
Mapping shells                                     ... done
Starting the XC term evaluation                    ... done (   0.2 sec)
  promolecular density results
     # of electrons  =     32.001935340
     EX              =    -26.533835869
     EC              =     -1.074572181
     EX+EC           =    -27.608408049
Transforming the Hamiltonian                       ... done (   0.0 sec)
Diagonalizing the Hamiltonian                      ... done (   0.0 sec)
Back transforming the eigenvectors                 ... done (   0.0 sec)
Now organizing SCF variables                       ... done
                      ------------------
                      INITIAL GUESS DONE (   0.6 sec)
                      ------------------
--------------
SCF ITERATIONS
--------------
ITER       Energy         Delta-E        Max-DP      RMS-DP      [F,P]     Damp
               ***  Starting incremental Fock matrix formation  ***
  0   -208.8981814059   0.000000000000 0.09484014  0.00470003  0.2782269 0.7000
  1   -208.9955886557  -0.097407249731 0.05386018  0.00304338  0.1121386 0.7000
                               ***Turning on DIIS***
  2   -209.0306755538  -0.035086898191 0.06877708  0.00412035  0.0445262 0.0000
  3   -209.0869472901  -0.056271736221 0.04675977  0.00219885  0.0585519 0.0000
  4   -209.0993799698  -0.012432679746 0.00911970  0.00056960  0.0152335 0.0000
                      *** Initiating the SOSCF procedure ***
                           *** Shutting down DIIS ***
                      *** Re-Reading the Fockian *** 
                      *** Removing any level shift *** 
ITER      Energy       Delta-E        Grad      Rot      Max-DP    RMS-DP
  5   -209.10034707  -0.0009670966  0.000839  0.000839  0.003919  0.000198
               *** Restarting incremental Fock matrix formation ***
  6   -209.10038748  -0.0000404092  0.000464  0.001462  0.001999  0.000117
  7   -209.10038514   0.0000023362  0.000907  0.001179  0.001162  0.000055
  8   -209.10039273  -0.0000075912  0.000196  0.000472  0.000832  0.000037
  9   -209.10039221   0.0000005232  0.000299  0.000293  0.000350  0.000019
 10   -209.10039314  -0.0000009328  0.000021  0.000038  0.000079  0.000004
                 **** Energy Check signals convergence ****
              ***Rediagonalizing the Fockian in SOSCF/NRSCF***

               *****************************************************
               *                     SUCCESS                       *
               *           SCF CONVERGED AFTER  11 CYCLES          *
               *****************************************************

Setting up the final grid:

General Integration Accuracy     IntAcc      ...  4.670
Radial Grid Type                 RadialGrid  ... Gauss-Chebyshev
Angular Grid (max. acc.)         AngularGrid ... Lebedev-302
Angular grid pruning method      GridPruning ... 3 (G Style)
Weight generation scheme         WeightScheme... Becke
Basis function cutoff            BFCut       ...    1.0000e-10
Integration weight cutoff        WCut        ...    1.0000e-14
Grids for H and He will be reduced by one unit

# of grid points (after initial pruning)     ...  41818 (   0.0 sec)
# of grid points (after weights+screening)   ...  39770 (   0.1 sec)
nearest neighbour list constructed           ...    0.0 sec
Grid point re-assignment to atoms done       ...    0.0 sec
Grid point division into batches done        ...    0.2 sec
Reduced shell lists constructed in    0.7 sec

Total number of grid points                  ...    39770
Total number of batches                      ...      626
Average number of points per batch           ...       63
Average number of grid points per atom       ...     4419
Average number of shells per batch           ...    28.04 (71.91%)
Average number of basis functions per batch  ...    59.00 (72.84%)
Average number of large shells per batch     ...    22.74 (81.10%)
Average number of large basis fcns per batch ...    47.18 (79.96%)
Maximum spatial batch extension              ...  17.96, 17.27, 20.64 au
Average spatial batch extension              ...   2.83,  2.77,  2.79 au

Final grid set up in    0.9 sec
Final integration                            ... done (   0.7 sec)
Change in XC energy                          ...     0.000223222
Integrated number of electrons               ...    31.999943009
Previous integrated no of electrons          ...    32.003899235

----------------
TOTAL SCF ENERGY
----------------

Total Energy       :         -209.10016992 Eh           -5689.90489 eV

Components:
Nuclear Repulsion  :          121.83985082 Eh            3315.43089 eV
Electronic Energy  :         -330.94002073 Eh           -9005.33579 eV
One Electron Energy:         -525.15961125 Eh          -14290.31953 eV
Two Electron Energy:          194.21959051 Eh            5284.98374 eV

Virial components:
Potential Energy   :         -416.90095441 Eh          -11344.45171 eV
Kinetic Energy     :          207.80078450 Eh            5654.54682 eV
Virial Ratio       :            2.00625303


DFT components:
N(Alpha)           :       15.999971504484 electrons
N(Beta)            :       15.999971504484 electrons
N(Total)           :       31.999943008967 electrons
E(X)               :      -21.474200527691 Eh       
E(C)               :       -1.275551688463 Eh       
E(XC)              :      -22.749752216154 Eh       

---------------
SCF CONVERGENCE
---------------

  Last Energy change         ...    1.7932e-09  Tolerance :   1.0000e-06
  Last MAX-Density change    ...    4.5879e-05  Tolerance :   1.0000e-05
  Last RMS-Density change    ...    1.9391e-06  Tolerance :   1.0000e-06
  Last Orbital Gradient      ...    2.3640e-05  Tolerance :   5.0000e-05
  Last Orbital Rotation      ...    1.9448e-05  Tolerance :   5.0000e-05

             **** THE GBW FILE WAS UPDATED (acetamida.gbw) ****
             **** DENSITY FILE WAS UPDATED (acetamida.scfp.tmp) ****
             **** ENERGY FILE WAS UPDATED (acetamida.en.tmp) ****
----------------
ORBITAL ENERGIES
----------------

  NO   OCC          E(Eh)            E(eV) 
   0   2.0000     -19.095513      -519.6153 
   1   2.0000     -14.345368      -390.3573 
   2   2.0000     -10.276464      -279.6368 
   3   2.0000     -10.181324      -277.0479 
   4   2.0000      -1.018431       -27.7129 
   5   2.0000      -0.894681       -24.3455 
   6   2.0000      -0.736264       -20.0348 
   7   2.0000      -0.581614       -15.8265 
   8   2.0000      -0.531420       -14.4607 
   9   2.0000      -0.459276       -12.4975 
  10   2.0000      -0.443997       -12.0818 
  11   2.0000      -0.396571       -10.7913 
  12   2.0000      -0.385965       -10.5027 
  13   2.0000      -0.358861        -9.7651 
  14   2.0000      -0.258320        -7.0293 
  15   2.0000      -0.238002        -6.4764 
  16   0.0000       0.038566         1.0494 
  17   0.0000       0.074807         2.0356 
  18   0.0000       0.122776         3.3409 
  19   0.0000       0.143173         3.8959 
  20   0.0000       0.166375         4.5273 
  21   0.0000       0.179867         4.8944 
  22   0.0000       0.238924         6.5014 
  23   0.0000       0.322999         8.7892 
  24   0.0000       0.362547         9.8654 
  25   0.0000       0.534218        14.5368 
  26   0.0000       0.543703        14.7949 
  27   0.0000       0.586422        15.9574 
  28   0.0000       0.607947        16.5431 
  29   0.0000       0.631506        17.1842 
  30   0.0000       0.687011        18.6945 
  31   0.0000       0.693789        18.8789 
  32   0.0000       0.746475        20.3126 
  33   0.0000       0.772946        21.0329 
  34   0.0000       0.843523        22.9534 
  35   0.0000       0.845372        23.0037 
  36   0.0000       0.858140        23.3512 
  37   0.0000       0.882576        24.0161 
  38   0.0000       0.925659        25.1885 
  39   0.0000       0.938486        25.5375 
  40   0.0000       1.037504        28.2319 
  41   0.0000       1.095931        29.8218 
  42   0.0000       1.240799        33.7639 
  43   0.0000       1.297432        35.3049 
  44   0.0000       1.313095        35.7311 
  45   0.0000       1.384496        37.6740 
  46   0.0000       1.392697        37.8972 
  47   0.0000       1.452730        39.5308 
  48   0.0000       1.610530        43.8247 
  49   0.0000       1.739970        47.3470 
  50   0.0000       1.755615        47.7727 
  51   0.0000       1.805149        49.1206 
  52   0.0000       1.876694        51.0674 
  53   0.0000       1.900712        51.7210 
  54   0.0000       2.001744        54.4702 
  55   0.0000       2.029452        55.2242 
  56   0.0000       2.043868        55.6165 
  57   0.0000       2.045446        55.6594 
  58   0.0000       2.062030        56.1107 
  59   0.0000       2.130004        57.9603 
  60   0.0000       2.167424        58.9786 
  61   0.0000       2.172811        59.1252 
  62   0.0000       2.333215        63.4900 
  63   0.0000       2.349661        63.9375 
  64   0.0000       2.390469        65.0480 
  65   0.0000       2.509229        68.2796 
  66   0.0000       2.536000        69.0081 
  67   0.0000       2.622708        71.3675 
  68   0.0000       2.685212        73.0683 
  69   0.0000       2.686165        73.0943 
  70   0.0000       2.728309        74.2411 
  71   0.0000       2.868059        78.0438 
  72   0.0000       2.886143        78.5359 
  73   0.0000       2.905918        79.0741 
  74   0.0000       3.037731        82.6609 
  75   0.0000       3.083177        83.8975 
  76   0.0000       3.201578        87.1194 
  77   0.0000       3.397853        92.4603 
  78   0.0000       3.414041        92.9008 
  79   0.0000       3.457460        94.0823 
  80   0.0000       3.615919        98.3941 

                    ********************************
                    * MULLIKEN POPULATION ANALYSIS *
                    ********************************

-----------------------
MULLIKEN ATOMIC CHARGES
-----------------------
   0 C :   -0.395716
   1 C :    0.492841
   2 H :    0.123804
   3 H :    0.125406
   4 H :    0.145320
   5 O :   -0.456728
   6 N :   -0.572075
   7 H :    0.275577
   8 H :    0.261572
Sum of atomic charges:   -0.0000000

--------------------------------
MULLIKEN REDUCED ORBITAL CHARGES
--------------------------------
  0 C s       :     3.255387  s :     3.255387
      pz      :     1.079459  p :     3.111291
      px      :     1.015473
      py      :     1.016359
      dz2     :     0.006877  d :     0.029038
      dxz     :     0.001206
      dyz     :     0.008289
      dx2y2   :     0.004716
      dxy     :     0.007951
  1 C s       :     2.985260  s :     2.985260
      pz      :     0.763785  p :     2.409801
      px      :     0.820511
      py      :     0.825505
      dz2     :     0.030448  d :     0.112098
      dxz     :     0.018743
      dyz     :     0.026835
      dx2y2   :     0.014614
      dxy     :     0.021457
  2 H s       :     0.864521  s :     0.864521
      pz      :     0.002437  p :     0.011675
      px      :     0.006332
      py      :     0.002906
  3 H s       :     0.862951  s :     0.862951
      pz      :     0.005559  p :     0.011643
      px      :     0.002489
      py      :     0.003595
  4 H s       :     0.843496  s :     0.843496
      pz      :     0.005112  p :     0.011184
      px      :     0.002166
      py      :     0.003906
  5 O s       :     3.852506  s :     3.852506
      pz      :     1.449106  p :     4.577391
      px      :     1.439574
      py      :     1.688712
      dz2     :     0.007611  d :     0.026831
      dxz     :     0.007609
      dyz     :     0.004209
      dx2y2   :     0.004060
      dxy     :     0.003342
  6 N s       :     3.507813  s :     3.507813
      pz      :     1.309824  p :     4.044073
      px      :     1.409077
      py      :     1.325172
      dz2     :     0.004625  d :     0.020189
      dxz     :     0.004965
      dyz     :     0.003410
      dx2y2   :     0.002449
      dxy     :     0.004740
  7 H s       :     0.700119  s :     0.700119
      pz      :     0.004662  p :     0.024304
      px      :     0.009566
      py      :     0.010076
  8 H s       :     0.713769  s :     0.713769
      pz      :     0.010211  p :     0.024659
      px      :     0.009611
      py      :     0.004838


                     *******************************
                     * LOEWDIN POPULATION ANALYSIS *
                     *******************************

----------------------
LOEWDIN ATOMIC CHARGES
----------------------
   0 C :   -0.224235
   1 C :    0.108966
   2 H :    0.085176
   3 H :    0.085676
   4 H :    0.094112
   5 O :   -0.272651
   6 N :   -0.168461
   7 H :    0.149652
   8 H :    0.141765

-------------------------------
LOEWDIN REDUCED ORBITAL CHARGES
-------------------------------
  0 C s       :     2.921645  s :     2.921645
      pz      :     1.102948  p :     3.242406
      px      :     1.070360
      py      :     1.069097
      dz2     :     0.013563  d :     0.060184
      dxz     :     0.002138
      dyz     :     0.016506
      dx2y2   :     0.009933
      dxy     :     0.018044
  1 C s       :     2.842598  s :     2.842598
      pz      :     0.922206  p :     2.783266
      px      :     0.931200
      py      :     0.929860
      dz2     :     0.070874  d :     0.265171
      dxz     :     0.045408
      dyz     :     0.066425
      dx2y2   :     0.031903
      dxy     :     0.050561
  2 H s       :     0.874998  s :     0.874998
      pz      :     0.007147  p :     0.039826
      px      :     0.023137
      py      :     0.009542
  3 H s       :     0.874520  s :     0.874520
      pz      :     0.020398  p :     0.039804
      px      :     0.007416
      py      :     0.011991
  4 H s       :     0.866552  s :     0.866552
      pz      :     0.018347  p :     0.039336
      px      :     0.006485
      py      :     0.014504
  5 O s       :     3.560291  s :     3.560291
      pz      :     1.493543  p :     4.658053
      px      :     1.483075
      py      :     1.681435
      dz2     :     0.012768  d :     0.054307
      dxz     :     0.020305
      dyz     :     0.007320
      dx2y2   :     0.007791
      dxy     :     0.006124
  6 N s       :     3.104665  s :     3.104665
      pz      :     1.313102  p :     4.010482
      px      :     1.377481
      py      :     1.319899
      dz2     :     0.011843  d :     0.053314
      dxz     :     0.011621
      dyz     :     0.011953
      dx2y2   :     0.007026
      dxy     :     0.010872
  7 H s       :     0.769291  s :     0.769291
      pz      :     0.013543  p :     0.081057
      px      :     0.032082
      py      :     0.035432
  8 H s       :     0.776659  s :     0.776659
      pz      :     0.035134  p :     0.081576
      px      :     0.032125
      py      :     0.014317


                      *****************************
                      * MAYER POPULATION ANALYSIS *
                      *****************************

  NA   - Mulliken gross atomic population
  ZA   - Total nuclear charge
  QA   - Mulliken gross atomic charge
  VA   - Mayer's total valence
  BVA  - Mayer's bonded valence
  FA   - Mayer's free valence

  ATOM       NA         ZA         QA         VA         BVA        FA
  0 C      6.3957     6.0000    -0.3957     3.8224     3.8224    -0.0000
  1 C      5.5072     6.0000     0.4928     4.0222     4.0222     0.0000
  2 H      0.8762     1.0000     0.1238     0.9541     0.9541    -0.0000
  3 H      0.8746     1.0000     0.1254     0.9541     0.9541    -0.0000
  4 H      0.8547     1.0000     0.1453     0.9619     0.9619    -0.0000
  5 O      8.4567     8.0000    -0.4567     2.0912     2.0912     0.0000
  6 N      7.5721     7.0000    -0.5721     2.9826     2.9826     0.0000
  7 H      0.7244     1.0000     0.2756     0.9245     0.9245     0.0000
  8 H      0.7384     1.0000     0.2616     0.9212     0.9212    -0.0000

  Mayer bond orders larger than 0.1
B(  0-C ,  1-C ) :   0.9683 B(  0-C ,  2-H ) :   0.9505 B(  0-C ,  3-H ) :   0.9503 
B(  0-C ,  4-H ) :   0.9622 B(  1-C ,  5-O ) :   1.9249 B(  1-C ,  6-N ) :   1.1290 
B(  6-N ,  7-H ) :   0.8883 B(  6-N ,  8-H ) :   0.8947 

-------
TIMINGS
-------

Total SCF time: 0 days 0 hours 0 min 20 sec 

Total time                  ....      20.336 sec
Sum of individual times     ....      20.307 sec  ( 99.9%)

Fock matrix formation       ....      18.791 sec  ( 92.4%)
  XC integration            ....       3.013 sec  ( 16.0% of F)
    Basis function eval.    ....       1.342 sec  ( 44.5% of XC)
    Density eval.           ....       0.583 sec  ( 19.3% of XC)
    XC-Functional eval.     ....       0.354 sec  ( 11.7% of XC)
    XC-Potential eval.      ....       0.647 sec  ( 21.5% of XC)
Diagonalization             ....       0.020 sec  (  0.1%)
Density matrix formation    ....       0.002 sec  (  0.0%)
Population analysis         ....       0.004 sec  (  0.0%)
Initial guess               ....       0.409 sec  (  2.0%)
Orbital Transformation      ....       0.000 sec  (  0.0%)
Orbital Orthonormalization  ....       0.000 sec  (  0.0%)
DIIS solution               ....       0.006 sec  (  0.0%)
SOSCF solution              ....       0.018 sec  (  0.1%)
Grid generation             ....       1.058 sec  (  5.2%)

-------------------------   --------------------
FINAL SINGLE POINT ENERGY      -209.100169916361
-------------------------   --------------------


                            ***************************************
                            *     ORCA property calculations      *
                            ***************************************

                                    ---------------------
                                    Active property flags
                                    ---------------------
   (+) Dipole Moment


------------------------------------------------------------------------------
                       ORCA ELECTRIC PROPERTIES CALCULATION
------------------------------------------------------------------------------

Dipole Moment Calculation                       ... on
Quadrupole Moment Calculation                   ... off
Polarizability Calculation                      ... off
GBWName                                         ... acetamida.gbw
Electron density file                           ... acetamida.scfp.tmp
The origin for moment calculation is the CENTER OF MASS  = (-7.082714,  1.192699 -0.142054)

-------------
DIPOLE MOMENT
-------------
                                X             Y             Z
Electronic contribution:      2.51148       1.58789      -1.38288
Nuclear contribution   :     -3.37312      -1.39467       2.59033
                        -----------------------------------------
Total Dipole Moment    :     -0.86164       0.19322       1.20744
                        -----------------------------------------
Magnitude (a.u.)       :      1.49589
Magnitude (Debye)      :      3.80224


-------------------------------------------------------------------------------
                               ORCA SCF HESSIAN
-------------------------------------------------------------------------------

Hessian of the Kohn-Sham DFT energy:
Kohn-Sham wavefunction type                      ... RKS
Hartree-Fock exchange scaling                    ...    0.200
Number of operators                              ...    1
Number of atoms                                  ...    9
Basis set dimensions                             ...   81
Integral neglect threshold                       ... 1.0e-10
Integral primitive cutoff                        ... 1.0e-11

Setting up DFT Hessian calculations              ... 
Electron density on the grid                     ... found on disk
Electron density on the final grid               ... found on disk
Building xc-kernel on the grid                   ... done   (      0.0 sec)
Building xc-kernel on the final grid             ... done   (      0.2 sec)
                                                     done   (      0.3 sec)

Nuclear repulsion Hessian                        ... done   (      0.0 sec)

----------------------------------------------
Forming right-hand sides of CP-SCF equations     ...
----------------------------------------------
One electron integral derivatives                ... done   (      0.3 sec)
Transforming the overlap derivative matrices     ... done   (      0.0 sec)
Making the Q(x) pseudodensities                  ... done   (      0.0 sec)
Adding the E*S(x)*S(y) terms to the Hessian      ... done   (      0.0 sec)
Calculating energy weighted overlap derivatives  ... done   (      0.0 sec)
Two electron integral derivatives                ... done   (      6.9 sec)
Exchange-correlation integral derivatives        ... done   (     24.3 sec)
tr(F(y)Q(x)) contribution to the Hessian         ... done   (      0.0 sec)
Response fock operator R(S(x))                   ... done   (     11.7 sec)
XC Response fock operator R(S(x))                ... done   (      9.3 sec)
tr(F(y)S(x)) contribution to the Hessian         ... done   (      0.0 sec)
Transforming and finalizing RHSs                 ... done   (      0.0 sec)

----------------------------------------------
Solving the CP-SCF equations                     ...
----------------------------------------------
     CP-SCF ITERATION   0: 
     CP-SCF ITERATION   1:      0.002735997008
     CP-SCF ITERATION   2:      0.000252872859
     CP-SCF ITERATION   3:      0.000017478807
     CP-SCF ITERATION   4:      0.000002330117
     CP-SCF ITERATION   5:      0.000000921880

                                                 ... done   (    126.6 sec)
Forming perturbed density Hessian contributions  ... done   (      0.0 sec)
Making the perturbed densities                   ... done   (      0.0 sec)
2nd integral derivative contribs                 ... done   (     48.8 sec)
Exchange-correlation Hessian                     ... done   (     30.3 sec)
Dipol derivatives                                ... done   (      0.6 sec)

Total SCF Hessian time: 0 days 0 hours 4 min 19 sec 

Writing the Hessian file to the disk             ... done


-----------------------
VIBRATIONAL FREQUENCIES
-----------------------

   0:         0.00 cm**-1
   1:         0.00 cm**-1
   2:         0.00 cm**-1
   3:         0.00 cm**-1
   4:         0.00 cm**-1
   5:         0.00 cm**-1
   6:       -52.81 cm**-1 ***imaginary mode***
   7:       192.87 cm**-1
   8:       418.90 cm**-1
   9:       541.71 cm**-1
  10:       556.02 cm**-1
  11:       663.59 cm**-1
  12:       879.58 cm**-1
  13:       988.32 cm**-1
  14:      1065.64 cm**-1
  15:      1130.67 cm**-1
  16:      1359.24 cm**-1
  17:      1430.81 cm**-1
  18:      1477.81 cm**-1
  19:      1501.28 cm**-1
  20:      1635.22 cm**-1
  21:      1812.02 cm**-1
  22:      3057.11 cm**-1
  23:      3136.88 cm**-1
  24:      3149.83 cm**-1
  25:      3570.75 cm**-1
  26:      3708.79 cm**-1


------------
NORMAL MODES
------------

These modes are the cartesian displacements weighted by the diagonal matrix
M(i,i)=1/sqrt(m[i]) where m[i] is the mass of the displaced atom
Thus, these vectors are normalized but *not* orthogonal

                  0          1          2          3          4          5    
      0       0.000000   0.000000   0.000000   0.000000   0.000000   0.000000
      1       0.000000   0.000000   0.000000   0.000000   0.000000   0.000000
      2       0.000000   0.000000   0.000000   0.000000   0.000000   0.000000
      3       0.000000   0.000000   0.000000   0.000000   0.000000   0.000000
      4       0.000000   0.000000   0.000000   0.000000   0.000000   0.000000
      5       0.000000   0.000000   0.000000   0.000000   0.000000   0.000000
      6       0.000000   0.000000   0.000000   0.000000   0.000000   0.000000
      7       0.000000   0.000000   0.000000   0.000000   0.000000   0.000000
      8       0.000000   0.000000   0.000000   0.000000   0.000000   0.000000
      9       0.000000   0.000000   0.000000   0.000000   0.000000   0.000000
     10       0.000000   0.000000   0.000000   0.000000   0.000000   0.000000
     11       0.000000   0.000000   0.000000   0.000000   0.000000   0.000000
     12       0.000000   0.000000   0.000000   0.000000   0.000000   0.000000
     13       0.000000   0.000000   0.000000   0.000000   0.000000   0.000000
     14       0.000000   0.000000   0.000000   0.000000   0.000000   0.000000
     15       0.000000   0.000000   0.000000   0.000000   0.000000   0.000000
     16       0.000000   0.000000   0.000000   0.000000   0.000000   0.000000
     17       0.000000   0.000000   0.000000   0.000000   0.000000   0.000000
     18       0.000000   0.000000   0.000000   0.000000   0.000000   0.000000
     19       0.000000   0.000000   0.000000   0.000000   0.000000   0.000000
     20       0.000000   0.000000   0.000000   0.000000   0.000000   0.000000
     21       0.000000   0.000000   0.000000   0.000000   0.000000   0.000000
     22       0.000000   0.000000   0.000000   0.000000   0.000000   0.000000
     23       0.000000   0.000000   0.000000   0.000000   0.000000   0.000000
     24       0.000000   0.000000   0.000000   0.000000   0.000000   0.000000
     25       0.000000   0.000000   0.000000   0.000000   0.000000   0.000000
     26       0.000000   0.000000   0.000000   0.000000   0.000000   0.000000
                  6          7          8          9         10         11    
      0       0.001592  -0.000262   0.036324   0.013549   0.154094   0.024329
      1      -0.001423   0.000341  -0.099740  -0.010329   0.142360  -0.020833
      2       0.001094  -0.000114  -0.141635   0.010180  -0.040735   0.021023
      3       0.011962   0.017987  -0.075747  -0.126550   0.068978   0.099401
      4      -0.010147  -0.014932   0.018492   0.107234   0.113430  -0.083618
      5       0.010310   0.015104   0.109037  -0.107114   0.036126   0.084452
      6       0.020310   0.014166  -0.048723  -0.122527   0.115129   0.124805
      7       0.005243   0.027342  -0.312862  -0.340256   0.044521   0.227480
      8      -0.596249  -0.048276  -0.260928   0.019012  -0.106011  -0.054562
      9      -0.425201  -0.055271  -0.043817   0.272332   0.117173  -0.219118
     10       0.334565   0.007571  -0.321157   0.214808   0.030154  -0.150260
     11       0.253153   0.013750  -0.257644   0.104404  -0.099864  -0.024204
     12       0.337477   0.022152   0.363652   0.175597   0.322745  -0.086009
     13      -0.283610  -0.018700   0.138683  -0.143773   0.269750   0.071778
     14       0.286284   0.019100  -0.294238   0.145490  -0.118790  -0.072581
     15      -0.034297   0.004737  -0.111428   0.026367  -0.088014  -0.051796
     16       0.028758  -0.004027  -0.059349  -0.024238  -0.237981   0.043992
     17      -0.028974   0.003850   0.072267   0.022514  -0.133375  -0.044009
     18       0.032771  -0.081408   0.109346   0.021552  -0.091918  -0.038605
     19      -0.027348   0.068300   0.143387  -0.017625   0.035266   0.032495
     20       0.027758  -0.069046   0.012371   0.019224   0.142521  -0.033171
     21      -0.035010   0.314048   0.229442   0.475467  -0.286236   0.438206
     22       0.029626  -0.264094   0.033029  -0.399151   0.214896  -0.368316
     23      -0.030268   0.268192  -0.240975   0.407226   0.535144   0.371667
     24       0.029914   0.549738   0.218352  -0.172351  -0.252619  -0.373644
     25      -0.024394  -0.463433   0.379947   0.143309  -0.320042   0.314143
     26       0.025363   0.466954   0.123281  -0.145565  -0.019087  -0.317676
                 12         13         14         15         16         17    
      0       0.198242  -0.043586  -0.105327  -0.036432  -0.065006  -0.115397
      1       0.196683   0.073468   0.088069   0.034602  -0.038093  -0.154347
      2      -0.038826   0.124379  -0.088861   0.076921   0.039311  -0.016143
      3      -0.097391  -0.003924   0.125337   0.019442  -0.064870   0.076025
      4      -0.083718   0.022399  -0.105141  -0.004622  -0.165991   0.199525
      5       0.032229   0.025859   0.106471  -0.027360  -0.087938   0.107920
      6       0.261678  -0.181953  -0.343902  -0.110842   0.154577   0.153165
      7       0.345281  -0.293138  -0.506300  -0.166101   0.431476   0.493417
      8       0.041122  -0.192093   0.176734  -0.112549  -0.197426   0.054739
      9       0.257411  -0.102533   0.537446  -0.055236   0.462521   0.328973
     10       0.350417  -0.362740   0.344482  -0.212234   0.171584   0.346731
     11       0.036890  -0.123273  -0.015035  -0.066053   0.066415   0.207568
     12       0.137040   0.490804   0.219154   0.233872   0.412830   0.315614
     13       0.160631   0.457343  -0.182547   0.225606   0.313186   0.168739
     14      -0.002477  -0.123874   0.184901  -0.050403  -0.178784  -0.211236
     15      -0.090881  -0.000342  -0.025048   0.087170   0.016602  -0.004755
     16      -0.006793   0.027204   0.021079  -0.006727   0.020907  -0.022102
     17       0.100132   0.027527  -0.021185  -0.109307   0.001080  -0.016259
     18      -0.048383   0.035559  -0.014762  -0.111247   0.023926  -0.023656
     19      -0.141681  -0.075593   0.012497  -0.028223   0.065749  -0.063176
     20      -0.083589  -0.116381  -0.012911   0.102892   0.036888  -0.034708
     21       0.146441  -0.054202  -0.008657   0.148391  -0.102839   0.117520
     22      -0.327601   0.002187   0.007361  -0.256616   0.185988  -0.195690
     23      -0.494273   0.064977  -0.006498  -0.427404   0.305366  -0.332525
     24       0.110516  -0.074698  -0.039793   0.148559   0.024490  -0.041956
     25       0.201802  -0.327329   0.032199   0.551055   0.084097  -0.122835
     26       0.069603  -0.235615  -0.034277   0.371009   0.054114  -0.071784
                 18         19         20         21         22         23    
      0       0.016850  -0.035164  -0.010279   0.045918   0.036161   0.059583
      1      -0.021492   0.028909  -0.012743   0.018246   0.032104  -0.050313
      2      -0.040625  -0.030175  -0.000490  -0.036094  -0.010651   0.049811
      3      -0.021635  -0.013216   0.050548  -0.448700  -0.000901   0.000700
      4      -0.032455   0.011030   0.064754  -0.027567  -0.001895  -0.000568
      5      -0.006206  -0.011145   0.004540   0.501012  -0.000817   0.000561
      6      -0.045290   0.102138  -0.000128   0.074945  -0.564444  -0.652589
      7      -0.104524   0.346219   0.007178   0.110983   0.244055   0.269548
      8       0.622765   0.326881  -0.023489  -0.112901  -0.020510  -0.009472
      9      -0.513866  -0.034272   0.021276   0.168823   0.083677  -0.077549
     10       0.297625  -0.400545  -0.011129   0.031327  -0.300358   0.342599
     11       0.226675  -0.260148  -0.005278  -0.033366   0.528994  -0.607471
     12       0.319857   0.470123  -0.025004  -0.221374   0.062846   0.011062
     13       0.214833  -0.390878  -0.025731  -0.158440  -0.307685  -0.005203
     14      -0.174067   0.394999   0.003976   0.104613  -0.378519   0.015824
     15       0.016825   0.000771  -0.026867   0.266484  -0.000143   0.000147
     16       0.006821  -0.000552  -0.006068   0.028559   0.000151  -0.000128
     17      -0.013026   0.000519   0.025633  -0.285456   0.000325   0.000136
     18       0.003322   0.001858  -0.004806   0.048242   0.000039  -0.000187
     19       0.003278  -0.001565  -0.093997  -0.037526   0.000154   0.000161
     20      -0.000756   0.001567  -0.087360  -0.093905   0.000104  -0.000160
     21      -0.036110   0.008284  -0.302389  -0.195601  -0.002262  -0.000663
     22       0.039467  -0.006961   0.182652   0.166718  -0.001485   0.000564
     23       0.081382   0.007296   0.536648   0.394415   0.001193  -0.000553
     24       0.019226  -0.007868   0.319626   0.072623   0.001767   0.001706
     25       0.041602   0.006768   0.629756   0.028657   0.000979  -0.001427
     26       0.018522  -0.006683   0.246982  -0.056918  -0.001091   0.001523
                  24         25         26    
      0       0.029229   0.000525  -0.000339
      1      -0.042459   0.000212  -0.000254
      2      -0.077821  -0.000429   0.000143
      3       0.001740  -0.000011   0.001429
      4      -0.000361   0.001637   0.001509
      5      -0.002429   0.001627  -0.000191
      6      -0.311376  -0.002464  -0.000063
      7       0.127562   0.001734  -0.000569
      8      -0.022122   0.000536  -0.000057
      9       0.050203   0.000430  -0.000362
     10      -0.180951  -0.000682  -0.000335
     11       0.293764   0.003029  -0.000269
     12      -0.098550  -0.000639   0.000321
     13       0.553331   0.000261   0.000021
     14       0.663397   0.001019  -0.000351
     15      -0.000546  -0.000527  -0.000455
     16       0.000199  -0.000036  -0.000169
     17       0.000845   0.000594   0.000371
     18      -0.000059  -0.001643   0.066332
     19       0.000450  -0.039050   0.038242
     20       0.000516  -0.036711  -0.040250
     21      -0.001860   0.481682  -0.438361
     22      -0.001583   0.553386  -0.512306
     23       0.000647  -0.019442   0.009027
     24       0.002061  -0.453936  -0.489043
     25       0.002466  -0.033537  -0.030486
     26      -0.000034   0.501282   0.545637


-----------
IR SPECTRUM
-----------

 Mode    freq (cm**-1)   T**2         TX         TY         TZ
-------------------------------------------------------------------
   7:       192.87  221.037681  (  9.551573  -8.011266   8.100910)
   8:       418.90    3.568692  (  1.453576   0.949504  -0.744482)
   9:       541.71    4.805009  (  1.422722  -1.136773   1.220090)
  10:       556.02   15.068729  (  1.302908   3.257834   1.660626)
  11:       663.59   12.867289  (  2.292893  -1.926343   1.974623)
  12:       879.58    0.530994  ( -0.415070  -0.594504  -0.072639)
  13:       988.32    6.243536  ( -0.671124   1.270615   2.044179)
  14:      1065.64    4.344673  (  1.354721  -1.110388   1.129798)
  15:      1130.67    1.114030  (  0.163032   0.819592   0.644763)
  16:      1359.24   51.549177  (  0.165149  -5.005895  -5.144212)
  17:      1430.81  108.676564  (  3.531746   8.735623   4.460070)
  18:      1477.81    8.651132  ( -1.862600   0.087550   2.274684)
  19:      1501.28    8.734553  (  1.886456  -1.571940   1.644640)
  20:      1635.22  118.763177  (  2.163285   8.749381   6.126313)
  21:      1812.02  297.827752  ( -9.737190   2.580629  14.012681)
  22:      3057.11    5.954254  (  1.885763   1.066461  -1.122859)
  23:      3136.88   12.622675  (  2.273921  -1.933541   1.927012)
  24:      3149.83    7.740948  (  0.978647  -1.133587  -2.344820)
  25:      3570.75   28.441799  (  0.400361   4.008245   3.495066)
  26:      3708.79   31.557525  ( -4.298066  -2.778275   2.316321)

The first frequency considered to be a vibration is 7
The total number of vibrations considered is 20


--------------------------
THERMOCHEMISTRY AT 298.15K
--------------------------

Temperature         ... 298.15 K
Pressure            ... 1.00 atm
Total Mass          ... 59.07 AMU

Throughout the following assumptions are being made:
  (1) The electronic state is orbitally nondegenerate
  (2) There are no thermally accessible electronically excited states
  (3) Hindered rotations indicated by low frequency modes are not
      treated as such but are treated as vibrations and this may
      cause some error
  (4) All equations used are the standard statistical mechanics
      equations for an ideal gas
  (5) All vibrations are strictly harmonic

freq.     192.87  E(vib)   ...       0.36 
freq.     418.90  E(vib)   ...       0.18 
freq.     541.71  E(vib)   ...       0.12 
freq.     556.02  E(vib)   ...       0.12 
freq.     663.59  E(vib)   ...       0.08 
freq.     879.58  E(vib)   ...       0.04 
freq.     988.32  E(vib)   ...       0.02 
freq.    1065.64  E(vib)   ...       0.02 
freq.    1130.67  E(vib)   ...       0.01 
freq.    1359.24  E(vib)   ...       0.01 
freq.    1430.81  E(vib)   ...       0.00 
freq.    1477.81  E(vib)   ...       0.00 
freq.    1501.28  E(vib)   ...       0.00 
freq.    1635.22  E(vib)   ...       0.00 
freq.    1812.02  E(vib)   ...       0.00 
freq.    3057.11  E(vib)   ...       0.00 
freq.    3136.88  E(vib)   ...       0.00 
freq.    3149.83  E(vib)   ...       0.00 
freq.    3570.75  E(vib)   ...       0.00 
freq.    3708.79  E(vib)   ...       0.00 

------------
INNER ENERGY
------------

The inner energy is: U= E(el) + E(ZPE) + E(vib) + E(rot) + E(trans)
    E(el)   - is the total energy from the electronic structure calculation
              = E(kin-el) + E(nuc-el) + E(el-el) + E(nuc-nuc)
    E(ZPE)  - the the zero temperature vibrational energy from the frequency calculation
    E(vib)  - the the finite temperature correction to E(ZPE) due to population
              of excited vibrational states
    E(rot)  - is the rotational thermal energy
    E(trans)- is the translational thermal energy

Summary of contributions to the inner energy U:
Electronic energy                ...   -209.10016992 Eh
Zero point energy                ...      0.07353251 Eh      46.14 kcal/mol
Thermal vibrational correction   ...      0.00154979 Eh       0.97 kcal/mol
Thermal rotational correction    ...      0.00141627 Eh       0.89 kcal/mol
Thermal translational correction ...      0.00141627 Eh       0.89 kcal/mol
-----------------------------------------------------------------------
Total thermal energy                   -209.02225507 Eh


Summary of corrections to the electronic energy:
(perhaps to be used in another calculation)
Total thermal correction                  0.00438234 Eh       2.75 kcal/mol
Non-thermal (ZPE) correction              0.07353251 Eh      46.14 kcal/mol
-----------------------------------------------------------------------
Total correction                          0.07791484 Eh      48.89 kcal/mol


--------
ENTHALPY
--------

The enthalpy is H = U + kB*T
                kB is Boltzmann's constant
Total free energy                 ...   -209.02225507 Eh 
Thermal Enthalpy correction       ...      0.00094421 Eh       0.59 kcal/mol
-----------------------------------------------------------------------
Total Enthalpy                    ...   -209.02131086 Eh


Vibrational entropy computed according to the QRRHO of S. Grimme
Chem.Eur.J. 2012 18 9955


-------
ENTROPY
-------

The entropy contributions are T*S = T*(S(el)+S(vib)+S(rot)+S(trans)
     S(el)   - electronic entropy
     S(vib)  - vibrational entropy
     S(rot)  - rotational entropy
     S(trans)- translational entropy
The entropies will be listed as mutliplied by the temperature to get
units of energy

Electronic entropy                ...      0.00000000 Eh      0.00 kcal/mol
Vibrational entropy               ...      0.00237243 Eh      1.49 kcal/mol
Rotational entropy                ...      0.01033037 Eh      6.48 kcal/mol
Translational entropy             ...      0.01812560 Eh     11.37 kcal/mol
-----------------------------------------------------------------------
Final entropy term                ...      0.03082839 Eh     19.35 kcal/mol


CAUTION: The rotational entropy is not quite correctly treated here
         because it includes a symmetry number that is not yet correctly
         implemented in ORCA!
For a nonlinear molecule the correct rotational entropy is:
    S(rot) = R*(ln(qrot/sn)+1.5)
    R    = 8.31441 J/mol/K = 1.987191683e-3 kcal/mol/K
    qrot = 37786.1720929
    sn is the rotational symmetry number. We have assumed 3 here
       if it is different for your molecule then you should correct
       the printed rotational entropy by manually evaluating the equation
       as given above

For convenience we print out the resulting values for sn=1 - 12:
 sn= 1  qrot/sn=   37786.1721 T*S(rot)=     7.13 kcal/mol T*S(tot)=    20.00 kcal/mol
 sn= 2  qrot/sn=   18893.0860 T*S(rot)=     6.72 kcal/mol T*S(tot)=    19.59 kcal/mol
 sn= 3  qrot/sn=   12595.3907 T*S(rot)=     6.48 kcal/mol T*S(tot)=    19.35 kcal/mol
 sn= 4  qrot/sn=    9446.5430 T*S(rot)=     6.31 kcal/mol T*S(tot)=    19.17 kcal/mol
 sn= 5  qrot/sn=    7557.2344 T*S(rot)=     6.18 kcal/mol T*S(tot)=    19.04 kcal/mol
 sn= 6  qrot/sn=    6297.6953 T*S(rot)=     6.07 kcal/mol T*S(tot)=    18.93 kcal/mol
 sn= 7  qrot/sn=    5398.0246 T*S(rot)=     5.98 kcal/mol T*S(tot)=    18.84 kcal/mol
 sn= 8  qrot/sn=    4723.2715 T*S(rot)=     5.90 kcal/mol T*S(tot)=    18.76 kcal/mol
 sn= 9  qrot/sn=    4198.4636 T*S(rot)=     5.83 kcal/mol T*S(tot)=    18.69 kcal/mol
 sn=10  qrot/sn=    3778.6172 T*S(rot)=     5.77 kcal/mol T*S(tot)=    18.63 kcal/mol
 sn=11  qrot/sn=    3435.1066 T*S(rot)=     5.71 kcal/mol T*S(tot)=    18.58 kcal/mol
 sn=12  qrot/sn=    3148.8477 T*S(rot)=     5.66 kcal/mol T*S(tot)=    18.52 kcal/mol


-------------------
GIBBS FREE ENTHALPY
-------------------

The Gibbs free enthalpy is G = H - T*S

Total enthalpy                    ...   -209.02131086 Eh 
Total entropy correction          ...     -0.03082839 Eh    -19.35 kcal/mol
-----------------------------------------------------------------------
Final Gibbs free enthalpy         ...   -209.05213926 Eh

For completeness - the Gibbs free enthalpy minus the electronic energy
G-E(el)                           ...      0.04803066 Eh     30.14 kcal/mol


Timings for individual modules:

Sum of individual times         ...      280.104 sec (=   4.668 min)
GTO integral calculation        ...        0.570 sec (=   0.010 min)   0.2 %
SCF iterations                  ...       20.369 sec (=   0.339 min)   7.3 %
Analytical frequency calculation...      259.165 sec (=   4.319 min)  92.5 %
                             ****ORCA TERMINATED NORMALLY****
TOTAL RUN TIME: 0 days 0 hours 4 minutes 40 seconds 511 msec
