
                                 *****************
                                 * O   R   C   A *
                                 *****************

           --- An Ab Initio, DFT and Semiempirical electronic structure package ---

                  #######################################################
                  #                        -***-                        #
                  #  Department of molecular theory and spectroscopy    #
                  #              Directorship: Frank Neese              #
                  # Max Planck Institute for Chemical Energy Conversion #
                  #                  D-45470 Muelheim/Ruhr              #
                  #                       Germany                       #
                  #                                                     #
                  #                  All rights reserved                #
                  #                        -***-                        #
                  #######################################################


                         Program Version 4.0.1 -  RELEASE  -


 With contributions from (in alphabetic order):
   Daniel Aravena         : Magnetic Properties
   Michael Atanasov       : Ab Initio Ligand Field Theory
   Ute Becker             : Parallelization
   Martin Brehm           : Molecular dynamics
   Dmytro Bykov           : SCF Hessian
   Vijay G. Chilkuri      : MRCI spin determinant printing
   Dipayan Datta          : RHF DLPNO-CCSD density
   Achintya Kumar Dutta   : EOM-CC, STEOM-CC
   Dmitry Ganyushin       : Spin-Orbit,Spin-Spin,Magnetic field MRCI
   Yang Guo               : DLPNO-NEVPT2, CIM, IAO-localization
   Andreas Hansen         : Spin unrestricted coupled pair/coupled cluster methods
   Lee Huntington         : MR-EOM, pCC
   Robert Izsak           : Overlap fitted RIJCOSX, COSX-SCS-MP3, EOM
   Christian Kollmar      : KDIIS, OOCD, Brueckner-CCSD(T), CCSD density
   Simone Kossmann        : Meta GGA functionals, TD-DFT gradient, OOMP2, MP2 Hessian
   Martin Krupicka        : AUTO-CI
   Dagmar Lenk            : GEPOL surface
   Dimitrios Liakos       : Extrapolation schemes; parallel MDCI
   Dimitrios Manganas     : ROCIS; embedding schemes
   Dimitrios Pantazis     : SARC Basis sets
   Taras Petrenko         : DFT Hessian,TD-DFT gradient, ASA, ECA, R-Raman, ABS, FL, XAS/XES, NRVS
   Peter Pinski           : DLPNO-MP2
   Christoph Reimann      : Effective Core Potentials
   Marius Retegan         : Local ZFS, SOC
   Christoph Riplinger    : Optimizer, TS searches, QM/MM, DLPNO-CCSD(T), (RO)-DLPNO pert. Triples
   Tobias Risthaus        : Range-separated hybrids, TD-DFT gradient, RPA, STAB
   Michael Roemelt        : Restricted open shell CIS
   Masaaki Saitow         : Open-shell DLPNO
   Barbara Sandhoefer     : DKH picture change effects
   Kantharuban Sivalingam : CASSCF convergence, NEVPT2, FIC-MRCI
   Georgi Stoychev        : AutoAux
   Boris Wezisla          : Elementary symmetry handling
   Frank Wennmohs         : Technical directorship


 We gratefully acknowledge several colleagues who have allowed us to
 interface, adapt or use parts of their codes:
   Stefan Grimme, W. Hujo, H. Kruse,             : VdW corrections, initial TS optimization,
                  C. Bannwarth                     DFT functionals, gCP, sTDA/sTD-DF
   Ed Valeev                                     : LibInt (2-el integral package), F12 methods
   Garnet Chan, S. Sharma, J. Yang, R. Olivares  : DMRG
   Ulf Ekstrom                                   : XCFun DFT Library
   Mihaly Kallay                                 : mrcc  (arbitrary order and MRCC methods)
   Andreas Klamt, Michael Diedenhofen            : otool_cosmo (COSMO solvation model)
   Jiri Pittner, Ondrej Demel                    : Mk-CCSD
   Frank Weinhold                                : gennbo (NPA and NBO analysis)
   Christopher J. Cramer and Donald G. Truhlar   : smd solvation model


 Your calculation uses the libint2 library for the computation of 2-el integrals
 For citations please refer to: http://libint.valeyev.net

 This ORCA versions uses:
   CBLAS   interface :  Fast vector & matrix operations
   LAPACKE interface :  Fast linear algebra routines
   SCALAPACK package :  Parallel linear algebra routines




*****************************************
The coordinations will be read from file: tolueno.xyz
*****************************************


Your calculation utilizes the basis: 6-31G(d,p)
   H-He, Li-Ne : W. J. Hehre, R. Ditchfield and J.A. Pople, J. Chem. Phys. 56, 2257 (1972).
                 Note: He and Ne are unpublished basis sets taken from the Gaussian program.
                 Note: Li and B from J. D. Dill and J. A. Pople, J. Chem. Phys. 62, 2921 (1975).
   Na - Ar     : M. M. Francl, W. J. Pietro, W. J. Hehre, J. S. Binkley, M. S. Gordon, 
                 D. J. DeFrees and J. A. Pople, J. Chem. Phys. 77, 3654 (1982).
   K - Zn      : V. A. Rassolov, J. A. Pople, M. A. Ratner, and T. L. Windus, J. Chem. Phys. 109, 1223 (1998).

================================================================================
                                        WARNINGS
                       Please study these warnings very carefully!
================================================================================

WARNING: Gradients needed for Numerical Frequencies
  ===> : Setting RunTyp to EnGrad
Warning: TCutStore was < 0. Adjusted to Thresh (uncritical)

WARNING: Evaluation of Numerical Hessian with CPCM may lead to unreliable numbers

INFO   : the flag for use of LIBINT has been found!

================================================================================
                                       INPUT FILE
================================================================================
NAME = tolueno.inp
|  1> ! B3LYP 6-31G(d,p) CPCM(toluene) NumFreq
|  2> 
|  3> * xyzfile 0 1 tolueno.xyz
|  4> 
|  5>                          ****END OF INPUT****
================================================================================

                     *******************************
                     * Energy+Gradient Calculation *
                     *******************************

---------------------------------
CARTESIAN COORDINATES (ANGSTROEM)
---------------------------------
  C     -4.479960    1.449560    0.000000
  C     -4.396580    0.056250   -0.000000
  C     -3.150720   -0.568040   -0.000000
  C     -1.988020    0.200430   -0.000000
  C     -2.069960    1.594170    0.000000
  C     -3.317010    2.230410    0.000000
  H     -1.153090    2.178870    0.000000
  C     -3.420600    3.726630    0.000000
  H     -5.458270    1.924780    0.000000
  H     -5.304040   -0.541610   -0.000000
  H     -3.085800   -1.652720   -0.000000
  H     -1.015960   -0.285530   -0.000000
  H     -2.432310    4.198030   -0.000000
  H     -3.955060    4.067550    0.892510
  H     -3.955060    4.067550   -0.892510

----------------------------
CARTESIAN COORDINATES (A.U.)
----------------------------
  NO LB      ZA    FRAG     MASS         X           Y           Z
   0 C     6.0000    0    12.011   -8.465897    2.739271    0.000000
   1 C     6.0000    0    12.011   -8.308332    0.106297   -0.000000
   2 C     6.0000    0    12.011   -5.953998   -1.073440   -0.000000
   3 C     6.0000    0    12.011   -3.756813    0.378758   -0.000000
   4 C     6.0000    0    12.011   -3.911658    3.012545    0.000000
   5 C     6.0000    0    12.011   -6.268240    4.214864    0.000000
   6 H     1.0000    0     1.008   -2.179024    4.117468    0.000000
   7 C     6.0000    0    12.011   -6.463997    7.042310    0.000000
   8 H     1.0000    0     1.008  -10.314635    3.637307    0.000000
   9 H     1.0000    0     1.008  -10.023183   -1.023495   -0.000000
  10 H     1.0000    0     1.008   -5.831317   -3.123188   -0.000000
  11 H     1.0000    0     1.008   -1.919886   -0.539574   -0.000000
  12 H     1.0000    0     1.008   -4.596400    7.933127   -0.000000
  13 H     1.0000    0     1.008   -7.473980    7.686556    1.686599
  14 H     1.0000    0     1.008   -7.473980    7.686556   -1.686599

--------------------------------
INTERNAL COORDINATES (ANGSTROEM)
--------------------------------
 C      0   0   0     0.000000000000     0.00000000     0.00000000
 C      1   0   0     1.395802629493     0.00000000     0.00000000
 C      2   1   0     1.393522566627   120.03973853     0.00000000
 C      3   2   1     1.393706364662   119.92279305     0.00000000
 C      4   3   2     1.396146608061   120.09751249     0.00000000
 C      5   4   3     1.399976799843   120.39512487     0.00000000
 H      5   4   3     1.087439509536   119.16156168   180.00000085
 C      6   5   4     1.499801712394   120.99101861   180.00000000
 H      1   2   3     1.087623328409   119.33311729   180.00000000
 H      2   1   3     1.086701537314   119.95333491   180.00000085
 H      3   2   1     1.086621051149   120.04023215   180.00000085
 H      4   3   2     1.086764815956   119.97610805   180.00000085
 H      8   6   5     1.094958941742   111.53994234     0.00000000
 H      8   6   5     1.094736515377   110.14479879   240.27298506
 H      8   6   5     1.094736515377   110.14479879   119.72701494

---------------------------
INTERNAL COORDINATES (A.U.)
---------------------------
 C      0   0   0     0.000000000000     0.00000000     0.00000000
 C      1   0   0     2.637684706749     0.00000000     0.00000000
 C      2   1   0     2.633376012365   120.03973853     0.00000000
 C      3   2   1     2.633723340315   119.92279305     0.00000000
 C      4   3   2     2.638334732038   120.09751249     0.00000000
 C      5   4   3     2.645572745548   120.39512487     0.00000000
 H      5   4   3     2.054962860229   119.16156168   180.00000085
 C      6   5   4     2.834214491611   120.99101861   180.00000000
 H      1   2   3     2.055310227557   119.33311729   180.00000000
 H      2   1   3     2.053568294834   119.95333491   180.00000085
 H      3   2   1     2.053416198025   120.04023215   180.00000085
 H      4   3   2     2.053687874138   119.97610805   180.00000085
 H      8   6   5     2.069172527780   111.53994234     0.00000000
 H      8   6   5     2.068752202866   110.14479879   240.27298506
 H      8   6   5     2.068752202866   110.14479879   119.72701494

---------------------
BASIS SET INFORMATION
---------------------
There are 2 groups of distinct atoms

 Group   1 Type C   : 10s4p1d contracted to 3s2p1d pattern {631/31/1}
 Group   2 Type H   : 4s1p contracted to 2s1p pattern {31/1}

Atom   0C    basis set group =>   1
Atom   1C    basis set group =>   1
Atom   2C    basis set group =>   1
Atom   3C    basis set group =>   1
Atom   4C    basis set group =>   1
Atom   5C    basis set group =>   1
Atom   6H    basis set group =>   2
Atom   7C    basis set group =>   1
Atom   8H    basis set group =>   2
Atom   9H    basis set group =>   2
Atom  10H    basis set group =>   2
Atom  11H    basis set group =>   2
Atom  12H    basis set group =>   2
Atom  13H    basis set group =>   2
Atom  14H    basis set group =>   2
------------------------------------------------------------------------------
                           ORCA GTO INTEGRAL CALCULATION
------------------------------------------------------------------------------

                         BASIS SET STATISTICS AND STARTUP INFO

 # of primitive gaussian shells          ...  145
 # of primitive gaussian functions       ...  245
 # of contracted shells                  ...   66
 # of contracted basis functions         ...  138
 Highest angular momentum                ...    2
 Maximum contraction depth               ...    6
 Integral package used                   ... LIBINT
 Integral threshhold            Thresh   ...  2.500e-11
 Primitive cut-off              TCut     ...  2.500e-12


------------------------------ INTEGRAL EVALUATION ----------------------------


 * One electron integrals 
 Pre-screening matrix                    ... done
 Shell pair data                         ... done (   0.002 sec)

-------------------------------------------------------------------------------
                                 ORCA SCF
-------------------------------------------------------------------------------

------------
SCF SETTINGS
------------
Hamiltonian:
 Density Functional     Method          .... DFT(GTOs)
 Exchange Functional    Exchange        .... B88
   X-Alpha parameter    XAlpha          ....  0.666667
   Becke's b parameter  XBeta           ....  0.004200
 Correlation Functional Correlation     .... LYP
 LDA part of GGA corr.  LDAOpt          .... VWN-5
 Gradients option       PostSCFGGA      .... off
 Hybrid DFT is turned on
   Fraction HF Exchange ScalHFX         ....  0.200000
   Scaling of DF-GGA-X  ScalDFX         ....  0.720000
   Scaling of DF-GGA-C  ScalDFC         ....  0.810000
   Scaling of DF-LDA-C  ScalLDAC        ....  1.000000
   Perturbative correction              ....  0.000000
   NL short-range parameter             ....  4.800000


General Settings:
 Integral files         IntName         .... tolueno
 Hartree-Fock type      HFTyp           .... RHF
 Total Charge           Charge          ....    0
 Multiplicity           Mult            ....    1
 Number of Electrons    NEL             ....   50
 Basis Dimension        Dim             ....  138
 Nuclear Repulsion      ENuc            ....    269.1961452265 Eh

Convergence Acceleration:
 DIIS                   CNVDIIS         .... on
   Start iteration      DIISMaxIt       ....    12
   Startup error        DIISStart       ....  0.200000
   # of expansion vecs  DIISMaxEq       ....     5
   Bias factor          DIISBfac        ....   1.050
   Max. coefficient     DIISMaxC        ....  10.000
 Newton-Raphson         CNVNR           .... off
 SOSCF                  CNVSOSCF        .... on
   Start iteration      SOSCFMaxIt      ....   150
   Startup grad/error   SOSCFStart      ....  0.003300
 Level Shifting         CNVShift        .... on
   Level shift para.    LevelShift      ....    0.2500
   Turn off err/grad.   ShiftErr        ....    0.0010
 Zerner damping         CNVZerner       .... off
 Static damping         CNVDamp         .... on
   Fraction old density DampFac         ....    0.7000
   Max. Damping (<1)    DampMax         ....    0.9800
   Min. Damping (>=0)   DampMin         ....    0.0000
   Turn off err/grad.   DampErr         ....    0.1000
 Fernandez-Rico         CNVRico         .... off

SCF Procedure:
 Maximum # iterations   MaxIter         ....   125
 SCF integral mode      SCFMode         .... Direct
   Integral package                     .... LIBINT
 Reset frequeny         DirectResetFreq ....    20
 Integral Threshold     Thresh          ....  2.500e-11 Eh
 Primitive CutOff       TCut            ....  2.500e-12 Eh

Convergence Tolerance:
 Convergence Check Mode ConvCheckMode   .... Total+1el-Energy
 Convergence forced     ConvForced      .... 0
 Energy Change          TolE            ....  1.000e-08 Eh
 1-El. energy change                    ....  1.000e-05 Eh
 Orbital Gradient       TolG            ....  1.000e-05
 Orbital Rotation angle TolX            ....  1.000e-05
 DIIS Error             TolErr          ....  5.000e-07


Diagonalization of the overlap matrix:
Smallest eigenvalue                        ... 4.805e-04
Time for diagonalization                   ...    0.007 sec
Threshold for overlap eigenvalues          ... 1.000e-08
Number of eigenvalues below threshold      ... 0
Time for construction of square roots      ...    0.003 sec
Total time needed                          ...    0.010 sec

-------------------
DFT GRID GENERATION
-------------------

General Integration Accuracy     IntAcc      ...  4.340
Radial Grid Type                 RadialGrid  ... Gauss-Chebyshev
Angular Grid (max. acc.)         AngularGrid ... Lebedev-110
Angular grid pruning method      GridPruning ... 3 (G Style)
Weight generation scheme         WeightScheme... Becke
Basis function cutoff            BFCut       ...    1.0000e-11
Integration weight cutoff        WCut        ...    1.0000e-14
Grids for H and He will be reduced by one unit

# of grid points (after initial pruning)     ...  17944 (   0.0 sec)
# of grid points (after weights+screening)   ...  16651 (   0.1 sec)
nearest neighbour list constructed           ...    0.0 sec
Grid point re-assignment to atoms done       ...    0.0 sec
Grid point division into batches done        ...    0.0 sec
Reduced shell lists constructed in    0.3 sec

Total number of grid points                  ...    16651
Total number of batches                      ...      266
Average number of points per batch           ...       62
Average number of grid points per atom       ...     1110
Average number of shells per batch           ...    47.17 (71.47%)
Average number of basis functions per batch  ...    98.71 (71.53%)
Average number of large shells per batch     ...    37.19 (78.85%)
Average number of large basis fcns per batch ...    77.88 (78.90%)
Maximum spatial batch extension              ...  19.90, 21.48, 33.38 au
Average spatial batch extension              ...   3.79,  3.66,  4.70 au

Time for grid setup =    0.397 sec

------------------------------
INITIAL GUESS: MODEL POTENTIAL
------------------------------
Loading Hartree-Fock densities                     ... done
Calculating cut-offs                               ... done
Setting up the integral package                    ... done
Initializing the effective Hamiltonian             ... done
Starting the Coulomb interaction                   ... done (   0.2 sec)
Reading the grid                                   ... done
Mapping shells                                     ... done
Starting the XC term evaluation                    ... done (   0.4 sec)
  promolecular density results
     # of electrons  =     49.997372165
     EX              =    -38.348885718
     EC              =     -1.634622543
     EX+EC           =    -39.983508260
Transforming the Hamiltonian                       ... done (   0.0 sec)
Diagonalizing the Hamiltonian                      ... done (   0.0 sec)
Back transforming the eigenvectors                 ... done (   0.0 sec)
Now organizing SCF variables                       ... done
                      ------------------
                      INITIAL GUESS DONE (   1.2 sec)
                      ------------------

------------------------------------------------------------------------------
                           CPCM SOLVATION MODEL                               
------------------------------------------------------------------------------
CPCM parameters:
  Epsilon                                         ...       2.4000
  Refrac                                          ...       1.4970
  Rsolv                                           ...       1.3000
  Surface type                                    ...    GEPOL SES
  Epsilon function type                           ...         CPCM
Radii:
 Radius for C  used is    3.7795 Bohr (=   2.0000 Ang.)
 Radius for H  used is    2.4566 Bohr (=   1.3000 Ang.)
Calculating surface                               ...        done! (  0.0s)
GEPOL surface points                              ...          491
GEPOL Volume                                      ...     881.3535
GEPOL Surface-area                                ...     507.0086
Calculating surface distance matrix               ...        done! (  0.0s)
Performing Cholesky decomposition & store         ...        done! (  0.0s)
Overall time for CPCM initialization              ...                 0.1s
--------------
SCF ITERATIONS
--------------
ITER       Energy         Delta-E        Max-DP      RMS-DP      [F,P]     Damp
               ***  Starting incremental Fock matrix formation  ***
  0   -271.2105531396   0.000000000000 0.05806944  0.00207561  0.1701010 0.7000
  1   -271.2899134282  -0.079360288619 0.04024427  0.00157405  0.0924414 0.7000
                               ***Turning on DIIS***
  2   -271.3261454626  -0.036232034328 0.06519397  0.00280260  0.0384982 0.0000
  3   -271.3766989289  -0.050553466287 0.02796360  0.00107309  0.0467563 0.0000
  4   -271.3897965715  -0.013097642607 0.00895716  0.00033197  0.0089666 0.0000
                      *** Initiating the SOSCF procedure ***
                           *** Shutting down DIIS ***
                      *** Re-Reading the Fockian *** 
                      *** Removing any level shift *** 
ITER      Energy       Delta-E        Grad      Rot      Max-DP    RMS-DP
  5   -271.39049776  -0.0007011904  0.000824  0.000824  0.002997  0.000116
               *** Restarting incremental Fock matrix formation ***
  6   -271.39054095  -0.0000431862  0.000415  0.000794  0.001795  0.000069
  7   -271.39054169  -0.0000007395  0.000406  0.000424  0.000575  0.000019
  8   -271.39054473  -0.0000030458  0.000068  0.000214  0.000319  0.000010
  9   -271.39054466   0.0000000728  0.000082  0.000123  0.000153  0.000005
 10   -271.39054484  -0.0000001749  0.000010  0.000034  0.000041  0.000001
 11   -271.39054483   0.0000000016  0.000012  0.000019  0.000023  0.000001
                 **** Energy Check signals convergence ****
              ***Rediagonalizing the Fockian in SOSCF/NRSCF***

               *****************************************************
               *                     SUCCESS                       *
               *           SCF CONVERGED AFTER  12 CYCLES          *
               *****************************************************

Setting up the final grid:

General Integration Accuracy     IntAcc      ...  4.670
Radial Grid Type                 RadialGrid  ... Gauss-Chebyshev
Angular Grid (max. acc.)         AngularGrid ... Lebedev-302
Angular grid pruning method      GridPruning ... 3 (G Style)
Weight generation scheme         WeightScheme... Becke
Basis function cutoff            BFCut       ...    1.0000e-11
Integration weight cutoff        WCut        ...    1.0000e-14
Grids for H and He will be reduced by one unit

# of grid points (after initial pruning)     ...  70636 (   0.1 sec)
# of grid points (after weights+screening)   ...  64767 (   0.4 sec)
nearest neighbour list constructed           ...    0.0 sec
Grid point re-assignment to atoms done       ...    0.0 sec
Grid point division into batches done        ...    0.4 sec
Reduced shell lists constructed in    1.8 sec

Total number of grid points                  ...    64767
Total number of batches                      ...     1020
Average number of points per batch           ...       63
Average number of grid points per atom       ...     4318
Average number of shells per batch           ...    43.06 (65.25%)
Average number of basis functions per batch  ...    89.72 (65.02%)
Average number of large shells per batch     ...    33.29 (77.32%)
Average number of large basis fcns per batch ...    69.22 (77.15%)
Maximum spatial batch extension              ...  19.80, 20.24, 23.14 au
Average spatial batch extension              ...   2.59,  2.56,  2.78 au

Final grid set up in    2.3 sec
Final integration                            ... done (   2.1 sec)
Change in XC energy                          ...    -0.000618805
Integrated number of electrons               ...    49.999885683
Previous integrated no of electrons          ...    49.999109394

----------------
TOTAL SCF ENERGY
----------------

Total Energy       :         -271.39116364 Eh           -7384.92901 eV

Components:
Nuclear Repulsion  :          269.19614523 Eh            7325.19952 eV
Electronic Energy  :         -540.58730887 Eh          -14710.12852 eV
One Electron Energy:         -897.85269162 Eh          -24431.81383 eV
Two Electron Energy:          357.26538275 Eh            9721.68531 eV
CPCM Dielectric    :           -0.00244745 Eh              -0.06660 eV

Virial components:
Potential Energy   :         -541.08942651 Eh          -14723.79184 eV
Kinetic Energy     :          269.69826287 Eh            7338.86283 eV
Virial Ratio       :            2.00627702


DFT components:
N(Alpha)           :       24.999942841741 electrons
N(Beta)            :       24.999942841741 electrons
N(Total)           :       49.999885683482 electrons
E(X)               :      -31.069043409403 Eh       
E(C)               :       -1.939174105748 Eh       
E(XC)              :      -33.008217515150 Eh       
CPCM Solvation Model Properties:
Surface-charge          :           -0.02144271
Charge-correction       :           -0.00001547 Eh              -0.00042 eV
Free-energy (cav+disp)  :            0.00363552 Eh               0.09893 eV
Corrected G(solv)       :         -271.38754360 Eh           -7384.83050 eV

---------------
SCF CONVERGENCE
---------------

  Last Energy change         ...   -3.9871e-09  Tolerance :   1.0000e-08
  Last MAX-Density change    ...    1.5739e-06  Tolerance :   1.0000e-07
  Last RMS-Density change    ...    9.8320e-08  Tolerance :   5.0000e-09
  Last Orbital Gradient      ...    1.1783e-06  Tolerance :   1.0000e-05
  Last Orbital Rotation      ...    8.0052e-07  Tolerance :   1.0000e-05

             **** THE GBW FILE WAS UPDATED (tolueno.gbw) ****
             **** DENSITY FILE WAS UPDATED (tolueno.scfp.tmp) ****
             **** ENERGY FILE WAS UPDATED (tolueno.en.tmp) ****
----------------
ORBITAL ENERGIES
----------------

  NO   OCC          E(Eh)            E(eV) 
   0   2.0000     -10.183521      -277.1077 
   1   2.0000     -10.176077      -276.9051 
   2   2.0000     -10.175694      -276.8947 
   3   2.0000     -10.173648      -276.8390 
   4   2.0000     -10.173493      -276.8348 
   5   2.0000     -10.173223      -276.8275 
   6   2.0000     -10.168706      -276.7046 
   7   2.0000      -0.845578       -23.0093 
   8   2.0000      -0.762252       -20.7419 
   9   2.0000      -0.733966       -19.9722 
  10   2.0000      -0.674222       -18.3465 
  11   2.0000      -0.594273       -16.1710 
  12   2.0000      -0.572111       -15.5679 
  13   2.0000      -0.499167       -13.5830 
  14   2.0000      -0.448129       -12.1942 
  15   2.0000      -0.444075       -12.0839 
  16   2.0000      -0.414162       -11.2699 
  17   2.0000      -0.409401       -11.1404 
  18   2.0000      -0.395839       -10.7713 
  19   2.0000      -0.372493       -10.1360 
  20   2.0000      -0.345622        -9.4049 
  21   2.0000      -0.329797        -8.9742 
  22   2.0000      -0.328718        -8.9449 
  23   2.0000      -0.242512        -6.5991 
  24   2.0000      -0.232815        -6.3352 
  25   0.0000       0.005038         0.1371 
  26   0.0000       0.010564         0.2875 
  27   0.0000       0.103368         2.8128 
  28   0.0000       0.129748         3.5306 
  29   0.0000       0.144553         3.9335 
  30   0.0000       0.151716         4.1284 
  31   0.0000       0.168477         4.5845 
  32   0.0000       0.180446         4.9102 
  33   0.0000       0.197973         5.3871 
  34   0.0000       0.206518         5.6196 
  35   0.0000       0.208354         5.6696 
  36   0.0000       0.247905         6.7458 
  37   0.0000       0.314367         8.5544 
  38   0.0000       0.325840         8.8665 
  39   0.0000       0.328532         8.9398 
  40   0.0000       0.360798         9.8178 
  41   0.0000       0.459084        12.4923 
  42   0.0000       0.523544        14.2463 
  43   0.0000       0.524429        14.2704 
  44   0.0000       0.550698        14.9853 
  45   0.0000       0.559589        15.2272 
  46   0.0000       0.565865        15.3980 
  47   0.0000       0.586876        15.9697 
  48   0.0000       0.605642        16.4804 
  49   0.0000       0.608213        16.5503 
  50   0.0000       0.619862        16.8673 
  51   0.0000       0.629596        17.1322 
  52   0.0000       0.641676        17.4609 
  53   0.0000       0.647593        17.6219 
  54   0.0000       0.675615        18.3844 
  55   0.0000       0.697963        18.9925 
  56   0.0000       0.716549        19.4983 
  57   0.0000       0.763324        20.7711 
  58   0.0000       0.763701        20.7814 
  59   0.0000       0.823984        22.4217 
  60   0.0000       0.828812        22.5531 
  61   0.0000       0.835199        22.7269 
  62   0.0000       0.855700        23.2848 
  63   0.0000       0.873860        23.7790 
  64   0.0000       0.892281        24.2802 
  65   0.0000       0.919720        25.0269 
  66   0.0000       0.939158        25.5558 
  67   0.0000       0.958097        26.0711 
  68   0.0000       0.973173        26.4814 
  69   0.0000       1.012815        27.5601 
  70   0.0000       1.095261        29.8036 
  71   0.0000       1.116760        30.3886 
  72   0.0000       1.135625        30.9019 
  73   0.0000       1.172991        31.9187 
  74   0.0000       1.208345        32.8807 
  75   0.0000       1.263455        34.3804 
  76   0.0000       1.286275        35.0013 
  77   0.0000       1.363419        37.1005 
  78   0.0000       1.375558        37.4308 
  79   0.0000       1.414052        38.4783 
  80   0.0000       1.429601        38.9014 
  81   0.0000       1.433987        39.0208 
  82   0.0000       1.441187        39.2167 
  83   0.0000       1.464501        39.8511 
  84   0.0000       1.738806        47.3153 
  85   0.0000       1.743898        47.4539 
  86   0.0000       1.786151        48.6036 
  87   0.0000       1.802781        49.0562 
  88   0.0000       1.837341        49.9966 
  89   0.0000       1.880592        51.1735 
  90   0.0000       1.898127        51.6507 
  91   0.0000       1.931325        52.5540 
  92   0.0000       1.974030        53.7161 
  93   0.0000       1.978725        53.8438 
  94   0.0000       1.985692        54.0334 
  95   0.0000       2.001735        54.4700 
  96   0.0000       2.035904        55.3998 
  97   0.0000       2.050217        55.7892 
  98   0.0000       2.061969        56.1090 
  99   0.0000       2.096843        57.0580 
 100   0.0000       2.103894        57.2499 
 101   0.0000       2.155152        58.6447 
 102   0.0000       2.216706        60.3196 
 103   0.0000       2.294888        62.4471 
 104   0.0000       2.304462        62.7076 
 105   0.0000       2.331404        63.4407 
 106   0.0000       2.385035        64.9001 
 107   0.0000       2.385440        64.9111 
 108   0.0000       2.413053        65.6625 
 109   0.0000       2.420180        65.8564 
 110   0.0000       2.449600        66.6570 
 111   0.0000       2.454382        66.7871 
 112   0.0000       2.484606        67.6096 
 113   0.0000       2.507991        68.2459 
 114   0.0000       2.543626        69.2156 
 115   0.0000       2.574585        70.0580 
 116   0.0000       2.606129        70.9164 
 117   0.0000       2.607709        70.9594 
 118   0.0000       2.660047        72.3836 
 119   0.0000       2.673097        72.7387 
 120   0.0000       2.734382        74.4063 
 121   0.0000       2.751230        74.8648 
 122   0.0000       2.781438        75.6868 
 123   0.0000       2.842549        77.3497 
 124   0.0000       2.871215        78.1297 
 125   0.0000       2.886188        78.5372 
 126   0.0000       3.062791        83.3428 
 127   0.0000       3.072162        83.5978 
 128   0.0000       3.201128        87.1071 
 129   0.0000       3.210162        87.3529 
 130   0.0000       3.247865        88.3789 
 131   0.0000       3.256055        88.6018 
 132   0.0000       3.353695        91.2587 
 133   0.0000       3.432033        93.3904 
 134   0.0000       3.441910        93.6591 
 135   0.0000       3.490110        94.9707 
 136   0.0000       3.525890        95.9443 
 137   0.0000       3.934150       107.0537 

                    ********************************
                    * MULLIKEN POPULATION ANALYSIS *
                    ********************************

-----------------------
MULLIKEN ATOMIC CHARGES
-----------------------
   0 C :   -0.126561
   1 C :   -0.094873
   2 C :   -0.108569
   3 C :   -0.095460
   4 C :   -0.130434
   5 C :    0.107344
   6 H :    0.090391
   7 C :   -0.375415
   8 H :    0.089492
   9 H :    0.094564
  10 H :    0.097465
  11 H :    0.092527
  12 H :    0.111188
  13 H :    0.124160
  14 H :    0.124181
Sum of atomic charges:    0.0000000

--------------------------------
MULLIKEN REDUCED ORBITAL CHARGES
--------------------------------
  0 C s       :     3.185084  s :     3.185084
      pz      :     1.008176  p :     2.907114
      px      :     0.957717
      py      :     0.941221
      dz2     :     0.002819  d :     0.034364
      dxz     :     0.002831
      dyz     :     0.005147
      dx2y2   :     0.011328
      dxy     :     0.012238
  1 C s       :     3.177820  s :     3.177820
      pz      :     0.986254  p :     2.881974
      px      :     0.953610
      py      :     0.942109
      dz2     :     0.002795  d :     0.035079
      dxz     :     0.003410
      dyz     :     0.005138
      dx2y2   :     0.010840
      dxy     :     0.012897
  2 C s       :     3.171295  s :     3.171295
      pz      :     1.002680  p :     2.902411
      px      :     0.930056
      py      :     0.969675
      dz2     :     0.002799  d :     0.034863
      dxz     :     0.006034
      dyz     :     0.002162
      dx2y2   :     0.013373
      dxy     :     0.010496
  3 C s       :     3.177521  s :     3.177521
      pz      :     0.986166  p :     2.882975
      px      :     0.959303
      py      :     0.937506
      dz2     :     0.002800  d :     0.034963
      dxz     :     0.002966
      dyz     :     0.005522
      dx2y2   :     0.011452
      dxy     :     0.012223
  4 C s       :     3.179321  s :     3.179321
      pz      :     1.011667  p :     2.916525
      px      :     0.957170
      py      :     0.947687
      dz2     :     0.002812  d :     0.034589
      dxz     :     0.003231
      dyz     :     0.004795
      dx2y2   :     0.010877
      dxy     :     0.012874
  5 C s       :     3.141644  s :     3.141644
      pz      :     0.953182  p :     2.709523
      px      :     0.886515
      py      :     0.869827
      dz2     :     0.002891  d :     0.041489
      dxz     :     0.006196
      dyz     :     0.005744
      dx2y2   :     0.012910
      dxy     :     0.013748
  6 H s       :     0.897385  s :     0.897385
      pz      :     0.002743  p :     0.012224
      px      :     0.005965
      py      :     0.003517
  7 C s       :     3.242487  s :     3.242487
      pz      :     1.053962  p :     3.100988
      px      :     1.067448
      py      :     0.979578
      dz2     :     0.006414  d :     0.031940
      dxz     :     0.006262
      dyz     :     0.005672
      dx2y2   :     0.007224
      dxy     :     0.006368
  8 H s       :     0.898270  s :     0.898270
      pz      :     0.002729  p :     0.012238
      px      :     0.006538
      py      :     0.002971
  9 H s       :     0.893195  s :     0.893195
      pz      :     0.002669  p :     0.012241
      px      :     0.005909
      py      :     0.003663
 10 H s       :     0.890316  s :     0.890316
      pz      :     0.002743  p :     0.012219
      px      :     0.001907
      py      :     0.007569
 11 H s       :     0.895200  s :     0.895200
      pz      :     0.002682  p :     0.012273
      px      :     0.006523
      py      :     0.003068
 12 H s       :     0.877465  s :     0.877465
      pz      :     0.002353  p :     0.011347
      px      :     0.005998
      py      :     0.002997
 13 H s       :     0.864318  s :     0.864318
      pz      :     0.005345  p :     0.011522
      px      :     0.003445
      py      :     0.002732
 14 H s       :     0.864296  s :     0.864296
      pz      :     0.005345  p :     0.011523
      px      :     0.003445
      py      :     0.002733


                     *******************************
                     * LOEWDIN POPULATION ANALYSIS *
                     *******************************

----------------------
LOEWDIN ATOMIC CHARGES
----------------------
   0 C :   -0.083416
   1 C :   -0.074929
   2 C :   -0.087939
   3 C :   -0.075536
   4 C :   -0.086563
   5 C :   -0.014862
   6 H :    0.074355
   7 C :   -0.195637
   8 H :    0.074510
   9 H :    0.076328
  10 H :    0.076300
  11 H :    0.075792
  12 H :    0.076260
  13 H :    0.082665
  14 H :    0.082672

-------------------------------
LOEWDIN REDUCED ORBITAL CHARGES
-------------------------------
  0 C s       :     2.898023  s :     2.898023
      pz      :     0.994797  p :     3.102266
      px      :     1.051049
      py      :     1.056421
      dz2     :     0.005331  d :     0.083127
      dxz     :     0.005282
      dyz     :     0.011019
      dx2y2   :     0.029885
      dxy     :     0.031610
  1 C s       :     2.898662  s :     2.898662
      pz      :     0.971854  p :     3.091440
      px      :     1.057981
      py      :     1.061605
      dz2     :     0.005340  d :     0.084826
      dxz     :     0.006757
      dyz     :     0.011077
      dx2y2   :     0.028941
      dxy     :     0.032711
  2 C s       :     2.897105  s :     2.897105
      pz      :     0.988511  p :     3.106525
      px      :     1.063443
      py      :     1.054571
      dz2     :     0.005374  d :     0.084309
      dxz     :     0.013363
      dyz     :     0.003602
      dx2y2   :     0.033589
      dxy     :     0.028381
  3 C s       :     2.898871  s :     2.898871
      pz      :     0.972600  p :     3.092075
      px      :     1.056841
      py      :     1.062635
      dz2     :     0.005343  d :     0.084590
      dxz     :     0.005640
      dyz     :     0.012088
      dx2y2   :     0.030069
      dxy     :     0.031449
  4 C s       :     2.898728  s :     2.898728
      pz      :     0.996826  p :     3.104343
      px      :     1.049810
      py      :     1.057708
      dz2     :     0.005353  d :     0.083491
      dxz     :     0.006267
      dyz     :     0.010207
      dx2y2   :     0.028988
      dxy     :     0.032676
  5 C s       :     2.874998  s :     2.874998
      pz      :     0.942727  p :     3.037563
      px      :     1.068083
      py      :     1.026753
      dz2     :     0.006052  d :     0.102301
      dxz     :     0.013400
      dyz     :     0.010920
      dx2y2   :     0.036296
      dxy     :     0.035633
  6 H s       :     0.885430  s :     0.885430
      pz      :     0.008039  p :     0.040215
      px      :     0.020543
      py      :     0.011633
  7 C s       :     2.906485  s :     2.906485
      pz      :     1.093202  p :     3.224296
      px      :     1.095748
      py      :     1.035346
      dz2     :     0.012613  d :     0.064857
      dxz     :     0.011527
      dyz     :     0.011587
      dx2y2   :     0.016052
      dxy     :     0.013079
  8 H s       :     0.885345  s :     0.885345
      pz      :     0.007966  p :     0.040144
      px      :     0.022575
      py      :     0.009603
  9 H s       :     0.883717  s :     0.883717
      pz      :     0.007701  p :     0.039954
      px      :     0.020193
      py      :     0.012061
 10 H s       :     0.883583  s :     0.883583
      pz      :     0.007955  p :     0.040117
      px      :     0.005871
      py      :     0.026292
 11 H s       :     0.884276  s :     0.884276
      pz      :     0.007721  p :     0.039933
      px      :     0.022265
      py      :     0.009946
 12 H s       :     0.885251  s :     0.885251
      pz      :     0.006757  p :     0.038489
      px      :     0.021825
      py      :     0.009906
 13 H s       :     0.878502  s :     0.878502
      pz      :     0.019158  p :     0.038833
      px      :     0.011244
      py      :     0.008431
 14 H s       :     0.878495  s :     0.878495
      pz      :     0.019158  p :     0.038834
      px      :     0.011245
      py      :     0.008431


                      *****************************
                      * MAYER POPULATION ANALYSIS *
                      *****************************

  NA   - Mulliken gross atomic population
  ZA   - Total nuclear charge
  QA   - Mulliken gross atomic charge
  VA   - Mayer's total valence
  BVA  - Mayer's bonded valence
  FA   - Mayer's free valence

  ATOM       NA         ZA         QA         VA         BVA        FA
  0 C      6.1266     6.0000    -0.1266     3.9357     3.9357    -0.0000
  1 C      6.0949     6.0000    -0.0949     3.9476     3.9476    -0.0000
  2 C      6.1086     6.0000    -0.1086     3.9509     3.9509    -0.0000
  3 C      6.0955     6.0000    -0.0955     3.9481     3.9481    -0.0000
  4 C      6.1304     6.0000    -0.1304     3.9566     3.9566     0.0000
  5 C      5.8927     6.0000     0.1073     3.9669     3.9669     0.0000
  6 H      0.9096     1.0000     0.0904     0.9595     0.9595    -0.0000
  7 C      6.3754     6.0000    -0.3754     3.8848     3.8848    -0.0000
  8 H      0.9105     1.0000     0.0895     0.9589     0.9589     0.0000
  9 H      0.9054     1.0000     0.0946     0.9565     0.9565    -0.0000
 10 H      0.9025     1.0000     0.0975     0.9559     0.9559    -0.0000
 11 H      0.9075     1.0000     0.0925     0.9571     0.9571     0.0000
 12 H      0.8888     1.0000     0.1112     0.9577     0.9577     0.0000
 13 H      0.8758     1.0000     0.1242     0.9508     0.9508     0.0000
 14 H      0.8758     1.0000     0.1242     0.9507     0.9507    -0.0000

  Mayer bond orders larger than 0.1
B(  0-C ,  1-C ) :   1.4452 B(  0-C ,  5-C ) :   1.4260 B(  0-C ,  8-H ) :   0.9423 
B(  1-C ,  2-C ) :   1.4414 B(  1-C ,  9-H ) :   0.9423 B(  2-C ,  3-C ) :   1.4557 
B(  2-C , 10-H ) :   0.9428 B(  3-C ,  4-C ) :   1.4337 B(  3-C , 11-H ) :   0.9424 
B(  4-C ,  5-C ) :   1.4477 B(  4-C ,  6-H ) :   0.9384 B(  5-C ,  7-C ) :   0.9959 
B(  7-C , 12-H ) :   0.9618 B(  7-C , 13-H ) :   0.9533 B(  7-C , 14-H ) :   0.9533 


-------
TIMINGS
-------

Total SCF time: 0 days 0 hours 1 min 42 sec 

Total time                  ....     102.448 sec
Sum of individual times     ....     102.308 sec  ( 99.9%)

Fock matrix formation       ....      98.650 sec  ( 96.3%)
  XC integration            ....       8.763 sec  (  8.9% of F)
    Basis function eval.    ....       3.588 sec  ( 40.9% of XC)
    Density eval.           ....       2.032 sec  ( 23.2% of XC)
    XC-Functional eval.     ....       0.682 sec  (  7.8% of XC)
    XC-Potential eval.      ....       2.236 sec  ( 25.5% of XC)
Diagonalization             ....       0.071 sec  (  0.1%)
Density matrix formation    ....       0.007 sec  (  0.0%)
Population analysis         ....       0.016 sec  (  0.0%)
Initial guess               ....       0.759 sec  (  0.7%)
Orbital Transformation      ....       0.000 sec  (  0.0%)
Orbital Orthonormalization  ....       0.000 sec  (  0.0%)
DIIS solution               ....       0.020 sec  (  0.0%)
SOSCF solution              ....       0.063 sec  (  0.1%)
Grid generation             ....       2.721 sec  (  2.7%)

-------------------------   --------------------
FINAL SINGLE POINT ENERGY      -271.391163643322
-------------------------   --------------------

------------------------------------------------------------------------------
                         ORCA SCF GRADIENT CALCULATION
------------------------------------------------------------------------------

Gradient of the Kohn-Sham DFT energy:
Kohn-Sham wavefunction type      ... RKS
Hartree-Fock exchange scaling    ...    0.200
Number of operators              ...    1
Number of atoms                  ...   15
Basis set dimensions             ...  138
Integral neglect threshold       ... 2.5e-11
Integral primitive cutoff        ... 2.5e-12

Nuclear repulsion gradient       ... done
One Electron Gradient            ... done
Pre-screening matrix             ... done
Starting the two electron gradient:
Two electron gradient done
Exchange-correlation gradient    ... done

------------------
CARTESIAN GRADIENT
------------------

   1   C   :   -0.000157994    0.005099105   -0.000002609
   2   C   :    0.002773449   -0.001763820   -0.000008926
   3   C   :   -0.001699760    0.004558756   -0.000001686
   4   C   :   -0.001296794    0.000485401    0.000003977
   5   C   :    0.000441395    0.003537430    0.000005723
   6   C   :   -0.002133654    0.000285588    0.000000667
   7   H   :    0.001049462   -0.001698857   -0.000007234
   8   C   :   -0.003313786   -0.003336211   -0.000000149
   9   H   :   -0.000461523   -0.001372146    0.000003559
  10   H   :    0.000288884   -0.000025061    0.000009916
  11   H   :   -0.000068392    0.000463831    0.000001535
  12   H   :   -0.000299041    0.000007665   -0.000004416
  13   H   :    0.000902853    0.000069200   -0.000005025
  14   H   :    0.001984251   -0.003155444    0.001169968
  15   H   :    0.001990648   -0.003155435   -0.001165299

Difference to translation invariance:
           :   -0.0000000000    0.0000000000    0.0000000000

Norm of the cartesian gradient     ...    0.0118198401
RMS gradient                       ...    0.0017619977
MAX gradient                       ...    0.0050991045

-------
TIMINGS
-------

Total SCF gradient time            ...       43.196 sec

One electron gradient       ....       0.245 sec  (  0.6%)
Prescreening matrices       ....       0.253 sec  (  0.6%)
Two electron gradient       ....      28.587 sec  ( 66.2%)
XC gradient                 ....      12.396 sec  ( 28.7%)
CPCM gradient               ....       1.472 sec  (  3.4%)
   A-Matrix (El+Nuc)        ....       0.020 sec  (  0.0%)
   Potential                ....       1.451 sec  (  3.4%)

                            ***************************************
                            *     ORCA property calculations      *
                            ***************************************

                                    ---------------------
                                    Active property flags
                                    ---------------------
   (+) Dipole Moment


------------------------------------------------------------------------------
                       ORCA ELECTRIC PROPERTIES CALCULATION
------------------------------------------------------------------------------

Dipole Moment Calculation                       ... on
Quadrupole Moment Calculation                   ... off
Polarizability Calculation                      ... off
GBWName                                         ... tolueno.gbw
Electron density file                           ... tolueno.scfp.tmp
The origin for moment calculation is the CENTER OF MASS  = (-6.166989,  2.429034  0.000000)

-------------
DIPOLE MOMENT
-------------
                                X             Y             Z
Electronic contribution:      0.20576      -3.28776       0.00000
Nuclear contribution   :     -0.23656       3.44668       0.00000
                        -----------------------------------------
Total Dipole Moment    :     -0.03080       0.15891       0.00000
                        -----------------------------------------
Magnitude (a.u.)       :      0.16187
Magnitude (Debye)      :      0.41145


----------------------------------------------------------------------------
                           ORCA NUMERICAL FREQUENCIES
----------------------------------------------------------------------------

Number of atoms                ... 15
Central differences            ... used
Number of displacements        ... 90
Numerical increment            ...  0.005 bohr
IR-spectrum generation         ... on
Raman-spectrum generation      ... off
Surface Crossing Hessian       ... off

The output will be reduced. Please look at the following files:
SCF program output             ... >tolueno.lastscf
Integral program output        ... >tolueno.lastint
Gradient program output        ... >tolueno.lastgrad
Dipole moment program output   ... >tolueno.lastmom


         <<<Energy and Gradient at the input geometry>>>
The origin for moment calculation is the CENTER OF MASS  = (-6.166989,  2.429034  0.000000)
             <<<Displacing   1/coordinate 1 (+)>>>
The origin for moment calculation is the CENTER OF MASS  = (-6.166337,  2.429034  0.000000)
             <<<Displacing   1/coordinate 1 (-)>>>
The origin for moment calculation is the CENTER OF MASS  = (-6.167641,  2.429034  0.000000)
             <<<Displacing   1/coordinate 2 (+)>>>
The origin for moment calculation is the CENTER OF MASS  = (-6.166989,  2.429686  0.000000)
             <<<Displacing   1/coordinate 2 (-)>>>
The origin for moment calculation is the CENTER OF MASS  = (-6.166989,  2.428382  0.000000)
             <<<Displacing   1/coordinate 3 (+)>>>
The origin for moment calculation is the CENTER OF MASS  = (-6.166989,  2.429034  0.000652)
             <<<Displacing   1/coordinate 3 (-)>>>
The origin for moment calculation is the CENTER OF MASS  = (-6.166989,  2.429034 -0.000652)
             <<<Displacing   2/coordinate 1 (+)>>>
The origin for moment calculation is the CENTER OF MASS  = (-6.166337,  2.429034  0.000000)
             <<<Displacing   2/coordinate 1 (-)>>>
The origin for moment calculation is the CENTER OF MASS  = (-6.167641,  2.429034  0.000000)
             <<<Displacing   2/coordinate 2 (+)>>>
The origin for moment calculation is the CENTER OF MASS  = (-6.166989,  2.429686  0.000000)
             <<<Displacing   2/coordinate 2 (-)>>>
The origin for moment calculation is the CENTER OF MASS  = (-6.166989,  2.428382  0.000000)
             <<<Displacing   2/coordinate 3 (+)>>>
The origin for moment calculation is the CENTER OF MASS  = (-6.166989,  2.429034  0.000652)
             <<<Displacing   2/coordinate 3 (-)>>>
The origin for moment calculation is the CENTER OF MASS  = (-6.166989,  2.429034 -0.000652)
             <<<Displacing   3/coordinate 1 (+)>>>
The origin for moment calculation is the CENTER OF MASS  = (-6.166337,  2.429034  0.000000)
             <<<Displacing   3/coordinate 1 (-)>>>
The origin for moment calculation is the CENTER OF MASS  = (-6.167641,  2.429034  0.000000)
             <<<Displacing   3/coordinate 2 (+)>>>
The origin for moment calculation is the CENTER OF MASS  = (-6.166989,  2.429686  0.000000)
             <<<Displacing   3/coordinate 2 (-)>>>
The origin for moment calculation is the CENTER OF MASS  = (-6.166989,  2.428382  0.000000)
             <<<Displacing   3/coordinate 3 (+)>>>
The origin for moment calculation is the CENTER OF MASS  = (-6.166989,  2.429034  0.000652)
             <<<Displacing   3/coordinate 3 (-)>>>
The origin for moment calculation is the CENTER OF MASS  = (-6.166989,  2.429034 -0.000652)
             <<<Displacing   4/coordinate 1 (+)>>>
The origin for moment calculation is the CENTER OF MASS  = (-6.166337,  2.429034  0.000000)
             <<<Displacing   4/coordinate 1 (-)>>>
The origin for moment calculation is the CENTER OF MASS  = (-6.167641,  2.429034  0.000000)
             <<<Displacing   4/coordinate 2 (+)>>>
The origin for moment calculation is the CENTER OF MASS  = (-6.166989,  2.429686  0.000000)
             <<<Displacing   4/coordinate 2 (-)>>>
The origin for moment calculation is the CENTER OF MASS  = (-6.166989,  2.428382  0.000000)
             <<<Displacing   4/coordinate 3 (+)>>>
The origin for moment calculation is the CENTER OF MASS  = (-6.166989,  2.429034  0.000652)
             <<<Displacing   4/coordinate 3 (-)>>>
The origin for moment calculation is the CENTER OF MASS  = (-6.166989,  2.429034 -0.000652)
             <<<Displacing   5/coordinate 1 (+)>>>
The origin for moment calculation is the CENTER OF MASS  = (-6.166337,  2.429034  0.000000)
             <<<Displacing   5/coordinate 1 (-)>>>
The origin for moment calculation is the CENTER OF MASS  = (-6.167641,  2.429034  0.000000)
             <<<Displacing   5/coordinate 2 (+)>>>
The origin for moment calculation is the CENTER OF MASS  = (-6.166989,  2.429686  0.000000)
             <<<Displacing   5/coordinate 2 (-)>>>
The origin for moment calculation is the CENTER OF MASS  = (-6.166989,  2.428382  0.000000)
             <<<Displacing   5/coordinate 3 (+)>>>
The origin for moment calculation is the CENTER OF MASS  = (-6.166989,  2.429034  0.000652)
             <<<Displacing   5/coordinate 3 (-)>>>
The origin for moment calculation is the CENTER OF MASS  = (-6.166989,  2.429034 -0.000652)
             <<<Displacing   6/coordinate 1 (+)>>>
The origin for moment calculation is the CENTER OF MASS  = (-6.166337,  2.429034  0.000000)
             <<<Displacing   6/coordinate 1 (-)>>>
The origin for moment calculation is the CENTER OF MASS  = (-6.167641,  2.429034  0.000000)
             <<<Displacing   6/coordinate 2 (+)>>>
The origin for moment calculation is the CENTER OF MASS  = (-6.166989,  2.429686  0.000000)
             <<<Displacing   6/coordinate 2 (-)>>>
The origin for moment calculation is the CENTER OF MASS  = (-6.166989,  2.428382  0.000000)
             <<<Displacing   6/coordinate 3 (+)>>>
The origin for moment calculation is the CENTER OF MASS  = (-6.166989,  2.429034  0.000652)
             <<<Displacing   6/coordinate 3 (-)>>>
The origin for moment calculation is the CENTER OF MASS  = (-6.166989,  2.429034 -0.000652)
             <<<Displacing   7/coordinate 1 (+)>>>
The origin for moment calculation is the CENTER OF MASS  = (-6.166935,  2.429034  0.000000)
             <<<Displacing   7/coordinate 1 (-)>>>
The origin for moment calculation is the CENTER OF MASS  = (-6.167044,  2.429034  0.000000)
             <<<Displacing   7/coordinate 2 (+)>>>
The origin for moment calculation is the CENTER OF MASS  = (-6.166989,  2.429089  0.000000)
             <<<Displacing   7/coordinate 2 (-)>>>
The origin for moment calculation is the CENTER OF MASS  = (-6.166989,  2.428980  0.000000)
             <<<Displacing   7/coordinate 3 (+)>>>
The origin for moment calculation is the CENTER OF MASS  = (-6.166989,  2.429034  0.000055)
             <<<Displacing   7/coordinate 3 (-)>>>
The origin for moment calculation is the CENTER OF MASS  = (-6.166989,  2.429034 -0.000055)
             <<<Displacing   8/coordinate 1 (+)>>>
The origin for moment calculation is the CENTER OF MASS  = (-6.166337,  2.429034  0.000000)
             <<<Displacing   8/coordinate 1 (-)>>>
The origin for moment calculation is the CENTER OF MASS  = (-6.167641,  2.429034  0.000000)
             <<<Displacing   8/coordinate 2 (+)>>>
The origin for moment calculation is the CENTER OF MASS  = (-6.166989,  2.429686  0.000000)
             <<<Displacing   8/coordinate 2 (-)>>>
The origin for moment calculation is the CENTER OF MASS  = (-6.166989,  2.428382  0.000000)
             <<<Displacing   8/coordinate 3 (+)>>>
The origin for moment calculation is the CENTER OF MASS  = (-6.166989,  2.429034  0.000652)
             <<<Displacing   8/coordinate 3 (-)>>>
The origin for moment calculation is the CENTER OF MASS  = (-6.166989,  2.429034 -0.000652)
             <<<Displacing   9/coordinate 1 (+)>>>
The origin for moment calculation is the CENTER OF MASS  = (-6.166935,  2.429034  0.000000)
             <<<Displacing   9/coordinate 1 (-)>>>
The origin for moment calculation is the CENTER OF MASS  = (-6.167044,  2.429034  0.000000)
             <<<Displacing   9/coordinate 2 (+)>>>
The origin for moment calculation is the CENTER OF MASS  = (-6.166989,  2.429089  0.000000)
             <<<Displacing   9/coordinate 2 (-)>>>
The origin for moment calculation is the CENTER OF MASS  = (-6.166989,  2.428980  0.000000)
             <<<Displacing   9/coordinate 3 (+)>>>
The origin for moment calculation is the CENTER OF MASS  = (-6.166989,  2.429034  0.000055)
             <<<Displacing   9/coordinate 3 (-)>>>
The origin for moment calculation is the CENTER OF MASS  = (-6.166989,  2.429034 -0.000055)
             <<<Displacing  10/coordinate 1 (+)>>>
The origin for moment calculation is the CENTER OF MASS  = (-6.166935,  2.429034  0.000000)
             <<<Displacing  10/coordinate 1 (-)>>>
The origin for moment calculation is the CENTER OF MASS  = (-6.167044,  2.429034  0.000000)
             <<<Displacing  10/coordinate 2 (+)>>>
The origin for moment calculation is the CENTER OF MASS  = (-6.166989,  2.429089  0.000000)
             <<<Displacing  10/coordinate 2 (-)>>>
The origin for moment calculation is the CENTER OF MASS  = (-6.166989,  2.428980  0.000000)
             <<<Displacing  10/coordinate 3 (+)>>>
The origin for moment calculation is the CENTER OF MASS  = (-6.166989,  2.429034  0.000055)
             <<<Displacing  10/coordinate 3 (-)>>>
The origin for moment calculation is the CENTER OF MASS  = (-6.166989,  2.429034 -0.000055)
             <<<Displacing  11/coordinate 1 (+)>>>
The origin for moment calculation is the CENTER OF MASS  = (-6.166935,  2.429034  0.000000)
             <<<Displacing  11/coordinate 1 (-)>>>
The origin for moment calculation is the CENTER OF MASS  = (-6.167044,  2.429034  0.000000)
             <<<Displacing  11/coordinate 2 (+)>>>
The origin for moment calculation is the CENTER OF MASS  = (-6.166989,  2.429089  0.000000)
             <<<Displacing  11/coordinate 2 (-)>>>
The origin for moment calculation is the CENTER OF MASS  = (-6.166989,  2.428980  0.000000)
             <<<Displacing  11/coordinate 3 (+)>>>
The origin for moment calculation is the CENTER OF MASS  = (-6.166989,  2.429034  0.000055)
             <<<Displacing  11/coordinate 3 (-)>>>
The origin for moment calculation is the CENTER OF MASS  = (-6.166989,  2.429034 -0.000055)
             <<<Displacing  12/coordinate 1 (+)>>>
The origin for moment calculation is the CENTER OF MASS  = (-6.166935,  2.429034  0.000000)
             <<<Displacing  12/coordinate 1 (-)>>>
The origin for moment calculation is the CENTER OF MASS  = (-6.167044,  2.429034  0.000000)
             <<<Displacing  12/coordinate 2 (+)>>>
The origin for moment calculation is the CENTER OF MASS  = (-6.166989,  2.429089  0.000000)
             <<<Displacing  12/coordinate 2 (-)>>>
The origin for moment calculation is the CENTER OF MASS  = (-6.166989,  2.428980  0.000000)
             <<<Displacing  12/coordinate 3 (+)>>>
The origin for moment calculation is the CENTER OF MASS  = (-6.166989,  2.429034  0.000055)
             <<<Displacing  12/coordinate 3 (-)>>>
The origin for moment calculation is the CENTER OF MASS  = (-6.166989,  2.429034 -0.000055)
             <<<Displacing  13/coordinate 1 (+)>>>
The origin for moment calculation is the CENTER OF MASS  = (-6.166935,  2.429034  0.000000)
             <<<Displacing  13/coordinate 1 (-)>>>
The origin for moment calculation is the CENTER OF MASS  = (-6.167044,  2.429034  0.000000)
             <<<Displacing  13/coordinate 2 (+)>>>
The origin for moment calculation is the CENTER OF MASS  = (-6.166989,  2.429089  0.000000)
             <<<Displacing  13/coordinate 2 (-)>>>
The origin for moment calculation is the CENTER OF MASS  = (-6.166989,  2.428980  0.000000)
             <<<Displacing  13/coordinate 3 (+)>>>
The origin for moment calculation is the CENTER OF MASS  = (-6.166989,  2.429034  0.000055)
             <<<Displacing  13/coordinate 3 (-)>>>
The origin for moment calculation is the CENTER OF MASS  = (-6.166989,  2.429034 -0.000055)
             <<<Displacing  14/coordinate 1 (+)>>>
The origin for moment calculation is the CENTER OF MASS  = (-6.166935,  2.429034  0.000000)
             <<<Displacing  14/coordinate 1 (-)>>>
The origin for moment calculation is the CENTER OF MASS  = (-6.167044,  2.429034  0.000000)
             <<<Displacing  14/coordinate 2 (+)>>>
The origin for moment calculation is the CENTER OF MASS  = (-6.166989,  2.429089  0.000000)
             <<<Displacing  14/coordinate 2 (-)>>>
The origin for moment calculation is the CENTER OF MASS  = (-6.166989,  2.428980  0.000000)
             <<<Displacing  14/coordinate 3 (+)>>>
The origin for moment calculation is the CENTER OF MASS  = (-6.166989,  2.429034  0.000055)
             <<<Displacing  14/coordinate 3 (-)>>>
The origin for moment calculation is the CENTER OF MASS  = (-6.166989,  2.429034 -0.000055)
             <<<Displacing  15/coordinate 1 (+)>>>
The origin for moment calculation is the CENTER OF MASS  = (-6.166935,  2.429034  0.000000)
             <<<Displacing  15/coordinate 1 (-)>>>
The origin for moment calculation is the CENTER OF MASS  = (-6.167044,  2.429034  0.000000)
             <<<Displacing  15/coordinate 2 (+)>>>
The origin for moment calculation is the CENTER OF MASS  = (-6.166989,  2.429089  0.000000)
             <<<Displacing  15/coordinate 2 (-)>>>
The origin for moment calculation is the CENTER OF MASS  = (-6.166989,  2.428980  0.000000)
             <<<Displacing  15/coordinate 3 (+)>>>
The origin for moment calculation is the CENTER OF MASS  = (-6.166989,  2.429034  0.000055)
             <<<Displacing  15/coordinate 3 (-)>>>
The origin for moment calculation is the CENTER OF MASS  = (-6.166989,  2.429034 -0.000055)

-----------------------
VIBRATIONAL FREQUENCIES
-----------------------

   0:         0.00 cm**-1
   1:         0.00 cm**-1
   2:         0.00 cm**-1
   3:         0.00 cm**-1
   4:         0.00 cm**-1
   5:         0.00 cm**-1
   6:       -30.64 cm**-1 ***imaginary mode***
   7:       205.25 cm**-1
   8:       338.82 cm**-1
   9:       412.20 cm**-1
  10:       473.81 cm**-1
  11:       529.89 cm**-1
  12:       635.13 cm**-1
  13:       707.57 cm**-1
  14:       740.15 cm**-1
  15:       807.64 cm**-1
  16:       855.27 cm**-1
  17:       904.89 cm**-1
  18:       967.72 cm**-1
  19:       992.65 cm**-1
  20:      1006.86 cm**-1
  21:      1018.07 cm**-1
  22:      1055.70 cm**-1
  23:      1071.15 cm**-1
  24:      1115.13 cm**-1
  25:      1182.29 cm**-1
  26:      1200.55 cm**-1
  27:      1252.24 cm**-1
  28:      1346.22 cm**-1
  29:      1361.02 cm**-1
  30:      1418.22 cm**-1
  31:      1474.79 cm**-1
  32:      1492.61 cm**-1
  33:      1508.18 cm**-1
  34:      1543.32 cm**-1
  35:      1647.04 cm**-1
  36:      1662.61 cm**-1
  37:      3039.49 cm**-1
  38:      3113.01 cm**-1
  39:      3113.63 cm**-1
  40:      3170.70 cm**-1
  41:      3172.66 cm**-1
  42:      3183.38 cm**-1
  43:      3192.36 cm**-1
  44:      3201.67 cm**-1


------------
NORMAL MODES
------------

These modes are the cartesian displacements weighted by the diagonal matrix
M(i,i)=1/sqrt(m[i]) where m[i] is the mass of the displaced atom
Thus, these vectors are normalized but *not* orthogonal

                  0          1          2          3          4          5    
      0       0.000000   0.000000   0.000000   0.000000   0.000000   0.000000
      1       0.000000   0.000000   0.000000   0.000000   0.000000   0.000000
      2       0.000000   0.000000   0.000000   0.000000   0.000000   0.000000
      3       0.000000   0.000000   0.000000   0.000000   0.000000   0.000000
      4       0.000000   0.000000   0.000000   0.000000   0.000000   0.000000
      5       0.000000   0.000000   0.000000   0.000000   0.000000   0.000000
      6       0.000000   0.000000   0.000000   0.000000   0.000000   0.000000
      7       0.000000   0.000000   0.000000   0.000000   0.000000   0.000000
      8       0.000000   0.000000   0.000000   0.000000   0.000000   0.000000
      9       0.000000   0.000000   0.000000   0.000000   0.000000   0.000000
     10       0.000000   0.000000   0.000000   0.000000   0.000000   0.000000
     11       0.000000   0.000000   0.000000   0.000000   0.000000   0.000000
     12       0.000000   0.000000   0.000000   0.000000   0.000000   0.000000
     13       0.000000   0.000000   0.000000   0.000000   0.000000   0.000000
     14       0.000000   0.000000   0.000000   0.000000   0.000000   0.000000
     15       0.000000   0.000000   0.000000   0.000000   0.000000   0.000000
     16       0.000000   0.000000   0.000000   0.000000   0.000000   0.000000
     17       0.000000   0.000000   0.000000   0.000000   0.000000   0.000000
     18       0.000000   0.000000   0.000000   0.000000   0.000000   0.000000
     19       0.000000   0.000000   0.000000   0.000000   0.000000   0.000000
     20       0.000000   0.000000   0.000000   0.000000   0.000000   0.000000
     21       0.000000   0.000000   0.000000   0.000000   0.000000   0.000000
     22       0.000000   0.000000   0.000000   0.000000   0.000000   0.000000
     23       0.000000   0.000000   0.000000   0.000000   0.000000   0.000000
     24       0.000000   0.000000   0.000000   0.000000   0.000000   0.000000
     25       0.000000   0.000000   0.000000   0.000000   0.000000   0.000000
     26       0.000000   0.000000   0.000000   0.000000   0.000000   0.000000
     27       0.000000   0.000000   0.000000   0.000000   0.000000   0.000000
     28       0.000000   0.000000   0.000000   0.000000   0.000000   0.000000
     29       0.000000   0.000000   0.000000   0.000000   0.000000   0.000000
     30       0.000000   0.000000   0.000000   0.000000   0.000000   0.000000
     31       0.000000   0.000000   0.000000   0.000000   0.000000   0.000000
     32       0.000000   0.000000   0.000000   0.000000   0.000000   0.000000
     33       0.000000   0.000000   0.000000   0.000000   0.000000   0.000000
     34       0.000000   0.000000   0.000000   0.000000   0.000000   0.000000
     35       0.000000   0.000000   0.000000   0.000000   0.000000   0.000000
     36       0.000000   0.000000   0.000000   0.000000   0.000000   0.000000
     37       0.000000   0.000000   0.000000   0.000000   0.000000   0.000000
     38       0.000000   0.000000   0.000000   0.000000   0.000000   0.000000
     39       0.000000   0.000000   0.000000   0.000000   0.000000   0.000000
     40       0.000000   0.000000   0.000000   0.000000   0.000000   0.000000
     41       0.000000   0.000000   0.000000   0.000000   0.000000   0.000000
     42       0.000000   0.000000   0.000000   0.000000   0.000000   0.000000
     43       0.000000   0.000000   0.000000   0.000000   0.000000   0.000000
     44       0.000000   0.000000   0.000000   0.000000   0.000000   0.000000
                  6          7          8          9         10         11    
      0      -0.000162   0.000472  -0.124554  -0.000239   0.000495  -0.147972
      1      -0.000125   0.000316  -0.068952  -0.000147   0.000180   0.042228
      2      -0.053074  -0.161878  -0.000951   0.208324  -0.040627   0.000090
      3       0.000052  -0.000096   0.021525   0.000081  -0.000006  -0.131067
      4      -0.000130   0.000326  -0.081885  -0.000196   0.000249   0.097462
      5      -0.017193   0.019882   0.000239  -0.210071  -0.132936  -0.000269
      6       0.000102  -0.000230   0.065466   0.000149  -0.000185  -0.013448
      7      -0.000022  -0.000014  -0.000880  -0.000065  -0.000146   0.303127
      8       0.029628   0.182451   0.001048   0.000712   0.196636   0.000258
      9       0.000007  -0.000035   0.008530  -0.000007  -0.000042   0.119602
     10       0.000107  -0.000313   0.077535   0.000126  -0.000294   0.116935
     11       0.030436  -0.004187  -0.000727   0.207812  -0.127014  -0.000095
     12      -0.000216   0.000501  -0.134914  -0.000341   0.000331   0.124618
     13       0.000062  -0.000221   0.048470   0.000080  -0.000173   0.062701
     14      -0.004726  -0.178793  -0.000533  -0.208965  -0.043450  -0.000076
     15      -0.000249   0.000674  -0.154857  -0.000310   0.000417   0.007523
     16       0.000011   0.000030  -0.004858   0.000058   0.000086  -0.225914
     17      -0.036891  -0.134549   0.000288  -0.003320   0.286630   0.000209
     18      -0.000284   0.000693  -0.189152  -0.000438   0.000529  -0.002911
     19       0.000145  -0.000613   0.131772   0.000199  -0.000512   0.255561
     20      -0.004759  -0.227996  -0.001092  -0.446009  -0.302741  -0.000347
     21       0.000299  -0.000847   0.230496   0.000532  -0.000830   0.035679
     22       0.000043  -0.000036   0.022489   0.000158   0.000014  -0.363360
     23       0.035103   0.191765   0.000742  -0.000124  -0.013025  -0.000054
     24      -0.000311   0.000762  -0.174934  -0.000364   0.000540  -0.047052
     25      -0.000475   0.000996  -0.172236  -0.000415   0.000177   0.244219
     26      -0.090117  -0.197824  -0.002412   0.462491  -0.316727  -0.000147
     27       0.000110  -0.000301   0.075105   0.000180  -0.000244  -0.022402
     28      -0.000228   0.000612  -0.164693  -0.000357   0.000573  -0.065092
     29      -0.029715   0.093529   0.000395  -0.444328  -0.403582  -0.000701
     30       0.000190  -0.000598   0.135712   0.000288  -0.000482  -0.011879
     31      -0.000018  -0.000043   0.003434  -0.000070  -0.000197   0.303209
     32       0.056828   0.416670   0.002157   0.012104   0.332099   0.000411
     33       0.000069  -0.000224   0.054228   0.000048  -0.000084   0.036842
     34       0.000242  -0.000672   0.170818   0.000251  -0.000416  -0.045513
     35       0.054657   0.048318  -0.001626   0.463278  -0.380361  -0.000005
     36       0.000649  -0.001808   0.404194   0.000732  -0.001138   0.035256
     37      -0.000651   0.001887  -0.339994  -0.000330   0.000751  -0.368309
     38      -0.485223   0.559430   0.003623   0.008869  -0.198020  -0.000366
     39       0.499416  -0.209704   0.370900   0.000657   0.012143   0.036591
     40      -0.024172  -0.252062   0.234093  -0.014662   0.287356  -0.359772
     41       0.348685   0.162248   0.003640   0.005378  -0.117390  -0.000551
     42      -0.497848   0.205945   0.376199   0.000501  -0.013417   0.035915
     43       0.025804   0.248841   0.233111   0.015224  -0.286737  -0.359664
     44       0.348828   0.162150  -0.005947   0.005324  -0.117209   0.000962
                 12         13         14         15         16         17    
      0       0.211055   0.000045   0.000046   0.162770   0.000126   0.000001
      1      -0.226318   0.000059  -0.000044   0.088995   0.000072   0.000039
      2      -0.000043  -0.106427  -0.084248  -0.000297   0.081436  -0.086112
      3      -0.227764  -0.000009  -0.000040   0.208282   0.000283   0.000005
      4      -0.274325   0.000093   0.000027   0.145544   0.000161   0.000072
      5       0.000024   0.166520  -0.001724  -0.000159   0.068985   0.005688
      6      -0.136601  -0.000036  -0.000032   0.012365  -0.000015  -0.000006
      7      -0.005225   0.000077   0.000079  -0.163600  -0.000126   0.000027
      8       0.000086  -0.110183  -0.105859  -0.000149   0.000951   0.102559
      9      -0.255943   0.000051   0.000093  -0.229261  -0.000198   0.000031
     10       0.245152  -0.000060  -0.000033   0.122597   0.000048  -0.000032
     11       0.000020   0.169524  -0.005056   0.000266  -0.069398   0.009097
     12       0.184921   0.000091   0.000114  -0.182785  -0.000030   0.000006
     13       0.249225  -0.000076   0.000012   0.073700   0.000075  -0.000040
     14      -0.000129  -0.113171  -0.083012   0.000060  -0.075832  -0.088880
     15       0.133034   0.000053  -0.000005  -0.000246  -0.000064  -0.000022
     16       0.006999  -0.000060  -0.000034   0.033264   0.000046  -0.000012
     17       0.000043   0.124117   0.113799   0.000200  -0.005877   0.017773
     18       0.269748   0.000038   0.000156  -0.148314   0.000153   0.000164
     19       0.113789  -0.000065  -0.000045   0.003141  -0.000141  -0.000245
     20       0.000075  -0.514388   0.205480  -0.000878   0.515890   0.533433
     21       0.055597  -0.000224  -0.000166   0.030346  -0.000161  -0.000072
     22       0.002020  -0.000106  -0.000016  -0.277294  -0.000251  -0.000043
     23       0.000040   0.021607   0.021705  -0.000044   0.002289   0.026401
     24       0.280853   0.000067  -0.000020   0.134053   0.000087  -0.000113
     25      -0.078752   0.000100  -0.000217   0.011104  -0.000033  -0.000223
     26      -0.000192  -0.515017   0.188834   0.001421  -0.522300   0.518283
     27      -0.314274  -0.000027  -0.000029   0.048529   0.000154  -0.000040
     28      -0.143065   0.000110   0.000027   0.396581   0.000369   0.000120
     29      -0.000098  -0.077980   0.514867   0.001627  -0.472745  -0.056569
     30       0.299271   0.000096  -0.000425   0.015867  -0.000092   0.000435
     31       0.021245   0.000091   0.000042  -0.157808  -0.000109   0.000045
     32      -0.000525  -0.574947   0.487509   0.000508  -0.006030  -0.595303
     33      -0.329190   0.000061  -0.000158  -0.094520  -0.000354   0.000038
     34       0.098808  -0.000064  -0.000515   0.403200  -0.000226  -0.000042
     35       0.000178  -0.065467   0.540539  -0.001110   0.464175  -0.064542
     36       0.069505  -0.000187  -0.000033   0.022799   0.000114   0.000018
     37      -0.024300  -0.000128  -0.000240  -0.276045  -0.000776  -0.000210
     38       0.000119  -0.011664  -0.105841  -0.000225  -0.006921  -0.084788
     39       0.074739  -0.014285  -0.005211   0.002112  -0.003250  -0.018251
     40       0.020986   0.097206   0.189121  -0.328429  -0.000476   0.152216
     41       0.003540  -0.025817  -0.055417   0.000568  -0.001251  -0.044943
     42       0.074738   0.014586   0.005602   0.001953   0.003882   0.018430
     43       0.020749  -0.096369  -0.188072  -0.328264   0.001093  -0.151796
     44      -0.003582  -0.025729  -0.055406  -0.000455  -0.001257  -0.045001
                 18         19         20         21         22         23    
      0       0.000132   0.000282   0.169328   0.178397   0.045247   0.000456
      1       0.000030  -0.000027  -0.056782  -0.085654   0.063260  -0.000779
      2       0.086026   0.034583   0.000130  -0.000125  -0.000316  -0.036074
      3      -0.000066   0.000119   0.009265  -0.073912  -0.179785   0.001596
      4       0.000049   0.000083   0.026639  -0.052043  -0.038581   0.000646
      5      -0.092039  -0.080936   0.000312  -0.000077   0.000086   0.002634
      6      -0.000067  -0.000020  -0.043998   0.019134   0.009846  -0.000674
      7      -0.000058   0.000169   0.094220   0.231132  -0.158717   0.000742
      8      -0.004478   0.087698  -0.000183  -0.000010   0.000071   0.004062
      9       0.000136  -0.000020   0.048001   0.028066   0.182425  -0.000617
     10      -0.000067  -0.000064  -0.030737   0.005665  -0.015440  -0.000293
     11       0.095341  -0.076828   0.000047   0.000060  -0.000156   0.000133
     12       0.000178  -0.000076  -0.034347  -0.270301  -0.054224   0.001124
     13       0.000014  -0.000097  -0.032351  -0.150504   0.057877   0.000332
     14      -0.084913   0.031345   0.000639  -0.000634  -0.000314  -0.038967
     15      -0.000071  -0.000111  -0.052600   0.042582  -0.000969  -0.000942
     16      -0.000022   0.000017   0.003746   0.025234   0.023905  -0.000244
     17      -0.002264   0.009524  -0.001746   0.001504   0.001216   0.141580
     18       0.000372  -0.000175  -0.057258  -0.304882  -0.239159   0.001708
     19      -0.000218   0.000022   0.006026  -0.120243   0.353041  -0.000403
     20       0.462644  -0.253324  -0.002776   0.003285   0.001291   0.162489
     21      -0.000430  -0.000283  -0.136850   0.107594   0.001111  -0.001228
     22      -0.000084  -0.000059  -0.017519   0.020988  -0.023665   0.000312
     23       0.002520  -0.005899   0.001442  -0.001322  -0.001269  -0.153043
     24       0.000281   0.000310   0.184350   0.219645   0.201880  -0.000475
     25       0.000313  -0.000012  -0.045260  -0.010441   0.395287  -0.002823
     26      -0.462746  -0.272074   0.001337  -0.000754   0.001020   0.125302
     27      -0.000215  -0.000023  -0.060618  -0.034045  -0.398433   0.002114
     28       0.000314   0.000366   0.147189  -0.100262   0.271265   0.000082
     29       0.511615   0.530468  -0.002500   0.000914  -0.000106   0.016118
     30      -0.000396   0.000584  -0.177297   0.138591   0.005052  -0.003554
     31      -0.000089   0.000215   0.089042   0.245262  -0.175984   0.000649
     32       0.026166  -0.548848   0.001603  -0.000316  -0.000641  -0.023124
     33       0.000460  -0.000544   0.004596   0.081426   0.370603  -0.002698
     34       0.000529  -0.001052  -0.114764   0.140825   0.333974  -0.004460
     35      -0.526313   0.503778  -0.000668  -0.000207   0.001294   0.007559
     36       0.000350   0.000296   0.173190  -0.130559   0.005359   0.002601
     37      -0.001629  -0.001242  -0.651446   0.504959  -0.034334  -0.007669
     38      -0.007690   0.024492  -0.001374   0.001373   0.002399   0.327234
     39      -0.001930   0.007517   0.210903  -0.172222   0.006601   0.128403
     40       0.007719  -0.030841   0.366373  -0.304434  -0.032336  -0.595176
     41      -0.002890   0.010901   0.058760  -0.043387   0.004716   0.167796
     42       0.003315  -0.006663   0.213065  -0.174012   0.004575  -0.124705
     43      -0.005291   0.032289   0.355183  -0.293912  -0.022276   0.601281
     44      -0.003098   0.010721  -0.062005   0.046298  -0.001843   0.165997
                 24         25         26         27         28         29    
      0       0.030431  -0.006361  -0.023196   0.003216  -0.037088  -0.082262
      1      -0.099182   0.003802  -0.046883  -0.057021  -0.020913  -0.191740
      2       0.000129   0.000000  -0.000002   0.000015  -0.000008  -0.000010
      3       0.037554  -0.024580  -0.031085   0.074944  -0.073924  -0.051146
      4       0.051503   0.029649   0.041070   0.077768   0.087076   0.103657
      5      -0.000063   0.000025   0.000010   0.000000   0.000017   0.000002
      6      -0.069260   0.060965   0.001453  -0.005456   0.036693   0.196235
      7      -0.001150   0.002700   0.008009  -0.015451   0.002342   0.013044
      8       0.000061  -0.000103   0.000017   0.000010   0.000006   0.000022
      9       0.052481  -0.016643   0.022956  -0.074672  -0.070821  -0.045073
     10      -0.048574  -0.037098   0.043836   0.079521  -0.092165  -0.105316
     11       0.000047   0.000104  -0.000084  -0.000027  -0.000049  -0.000001
     12       0.013803  -0.008269   0.029693   0.013506  -0.034898  -0.101896
     13       0.098560  -0.000303  -0.048418  -0.064983   0.009696   0.172762
     14       0.000013  -0.000035   0.000024  -0.000010  -0.000025   0.000039
     15      -0.027308  -0.004875   0.000911   0.005597   0.211740   0.079755
     16       0.003106   0.005839  -0.002927  -0.337354   0.004253  -0.005951
     17      -0.000288   0.000023   0.000074  -0.000033   0.000043  -0.000014
     18      -0.201494  -0.097372   0.264518  -0.271023  -0.290081   0.301820
     19       0.442474   0.138322  -0.414492   0.349280   0.400827  -0.454413
     20      -0.000021   0.000272  -0.000244   0.000184   0.000114  -0.000176
     21       0.059875  -0.003018  -0.001049  -0.003641  -0.061170  -0.000085
     22       0.004424  -0.002782   0.002716   0.133910  -0.000152   0.011238
     23       0.000359  -0.000057  -0.000143  -0.000033  -0.000253   0.000100
     24      -0.152040  -0.074783  -0.215125   0.219308  -0.221009   0.257297
     25      -0.486394  -0.135617  -0.442461   0.352513  -0.394492   0.501390
     26      -0.000860   0.000062   0.000006   0.000192   0.000234   0.000030
     27      -0.080328  -0.264972  -0.281315  -0.088277   0.208051  -0.102114
     28       0.241713   0.392012   0.421732   0.342470  -0.346826   0.185511
     29       0.000355  -0.000195   0.000015  -0.000060  -0.000029  -0.000007
     30      -0.500294   0.683340   0.023960   0.023050   0.169437  -0.384691
     31      -0.027316   0.040628   0.009782  -0.006739   0.010735  -0.021872
     32      -0.000489   0.000765  -0.000095  -0.000012   0.000031  -0.000313
     33      -0.036406  -0.221686   0.222279   0.015479   0.167101  -0.074299
     34      -0.240483  -0.445327   0.444661   0.279117   0.393016  -0.167454
     35      -0.000366  -0.000748   0.000589   0.000223   0.000420  -0.000019
     36      -0.041973   0.004599   0.001481  -0.082924   0.012054   0.019237
     37       0.211758  -0.018374  -0.003263   0.328270  -0.128858  -0.031024
     38      -0.000921   0.000266   0.000726   0.000338   0.002069  -0.001027
     39      -0.075373   0.002082  -0.005790   0.011874   0.153600   0.017590
[...]
     44       0.030326  -0.000813   0.004082   0.037477  -0.089529  -0.014307
                 30         31         32         33         34         35    
      0      -0.007153  -0.034462   0.000671   0.036703   0.096391  -0.185004
      1      -0.004071   0.050031  -0.000959  -0.052647   0.074920  -0.131311
      2       0.000002   0.000040   0.002954  -0.000025   0.000044  -0.000009
      3       0.012805   0.011132  -0.000049   0.008766  -0.121755   0.203842
      4      -0.003327  -0.088530   0.001585   0.079157   0.113000  -0.038225
      5      -0.000019   0.000010   0.000333  -0.000004   0.000013  -0.000008
      6      -0.003799   0.053918  -0.001237  -0.098063   0.014558  -0.365674
      7      -0.000084   0.003010  -0.000141  -0.007577  -0.111303  -0.034627
      8      -0.000011   0.000016  -0.000184  -0.000018  -0.000022  -0.000023
      9      -0.003055   0.006928   0.000146   0.028868   0.100342   0.207374
     10       0.016120   0.085334  -0.001396  -0.078042   0.129013   0.112836
     11       0.000010   0.000008  -0.000144  -0.000012   0.000036   0.000016
     12       0.006666  -0.036485   0.000497   0.015656  -0.106756  -0.182254
     13      -0.012567  -0.043693   0.001021   0.072403   0.057699   0.058359
     14      -0.000013   0.000016   0.000515   0.000022   0.000024   0.000004
     15      -0.001537   0.071803  -0.001727  -0.106507   0.017017   0.302285
     16      -0.031200   0.012724  -0.000510  -0.006207  -0.157828   0.033527
     17       0.000100  -0.000283  -0.017567   0.000136  -0.000040   0.000013
     18      -0.024013  -0.074226   0.002117   0.157120   0.165770   0.009121
     19       0.037526  -0.004052  -0.001116  -0.131833  -0.395057  -0.257632
     20      -0.000069   0.000171   0.004265  -0.000130  -0.000034  -0.000010
     21      -0.030589  -0.057962   0.000673  -0.013370  -0.001361  -0.023981
     22       0.145764  -0.042621   0.001612  -0.025330   0.044477  -0.000893
     23       0.000723  -0.001124  -0.053754   0.000396   0.000068  -0.000024
     24       0.011327  -0.096509   0.002417   0.111385  -0.135797   0.017380
     25       0.038311  -0.059274   0.002166   0.074612  -0.433622   0.305674
     26      -0.000548   0.000253  -0.003851   0.000129  -0.000162   0.000064
     27      -0.024110  -0.173294   0.003110   0.172119   0.220307   0.056561
     28       0.053129   0.176953  -0.002915  -0.149426  -0.426274   0.221539
     29       0.000088  -0.000137  -0.004789   0.000054  -0.000047   0.000013
     30      -0.018607  -0.344537   0.006426   0.395203  -0.007605   0.466021
     31      -0.000114  -0.021860   0.000321   0.021448  -0.135312   0.014630
     32      -0.000065  -0.000085   0.002557   0.000162   0.000004   0.000267
     33      -0.008362  -0.151457   0.002546   0.146393  -0.177989   0.043902
     34       0.006771  -0.215297   0.003017   0.129783  -0.448272  -0.254115
     35       0.000019  -0.000199  -0.001920   0.000101  -0.000273  -0.000182
     36       0.220046  -0.218845   0.003385  -0.213924   0.022055   0.078349
     37      -0.392434   0.340696  -0.004639   0.422496  -0.006834  -0.210309
     38      -0.007746   0.013862   0.718441  -0.005521  -0.000772   0.000163
     39       0.077345   0.447449   0.346298   0.375441  -0.034501  -0.076971
     40      -0.532747   0.038632   0.333989  -0.077700   0.028649   0.092109
     41       0.307470   0.266499   0.046667   0.251469  -0.015475  -0.069273
     42       0.084067   0.434193  -0.354072   0.380845  -0.033604  -0.077068
     43      -0.528723   0.027138  -0.345251  -0.072004   0.029637   0.092081
     44      -0.308585  -0.264671   0.047074  -0.252157   0.015282   0.069337
                 36         37         38         39         40         41    
      0      -0.055437   0.000479  -0.001125   0.000471  -0.049143  -0.040866
      1      -0.297147  -0.001079   0.000731  -0.000283   0.022560   0.019725
      2       0.000003  -0.000008   0.000130   0.000400   0.000003  -0.000004
      3      -0.107854   0.000163   0.000496  -0.000167   0.032835   0.016683
      4       0.275900   0.000505  -0.000198   0.000063   0.020281   0.009421
      5      -0.000008   0.000001   0.000032   0.000101   0.000000   0.000001
      6       0.036628   0.000168  -0.000231   0.000072   0.001575  -0.001460
      7      -0.137461   0.000281  -0.000012   0.000010  -0.028157   0.008443
      8       0.000003   0.000001  -0.000017  -0.000047  -0.000002   0.000001
      9       0.042246  -0.000473   0.000270  -0.000087  -0.026690   0.033098
     10       0.270493   0.000084   0.000051  -0.000014   0.012860  -0.015051
     11       0.000031   0.000001  -0.000023  -0.000067  -0.000001   0.000004
     12       0.124041  -0.000246  -0.001786   0.000546   0.026985  -0.049595
     13      -0.300084  -0.000626  -0.001202   0.000370   0.015863  -0.030867
     14      -0.000018   0.000001  -0.000087  -0.000280  -0.000000  -0.000000
     15      -0.045972   0.000224   0.001352  -0.000421   0.000380   0.002298
     16       0.234459  -0.000749  -0.000871   0.000267   0.002590  -0.000362
     17      -0.000000   0.000004  -0.000160  -0.000512  -0.000001  -0.000002
     18      -0.265289   0.006578   0.016322  -0.004966  -0.309047   0.573623
     19       0.304156   0.005566   0.013173  -0.004034  -0.196854   0.367196
     20       0.000160   0.000002   0.000007  -0.000018   0.000020  -0.000038
     21       0.004113  -0.008688   0.087710  -0.027529  -0.000326  -0.002320
     22      -0.040259   0.048829   0.011010  -0.003315   0.000410  -0.000251
     23      -0.000025   0.000275  -0.027802  -0.088782  -0.000094  -0.000055
     24       0.241946  -0.010758   0.010951  -0.004802   0.568365   0.474141
     25       0.302938   0.005950  -0.006693   0.002595  -0.274293  -0.229957
     26       0.000015   0.000111  -0.000564  -0.001520  -0.000001  -0.000002
     27       0.240904  -0.001745  -0.004038   0.001390  -0.388910  -0.191250
     28      -0.240969  -0.000383  -0.002427   0.000842  -0.254590  -0.124281
     29      -0.000005  -0.000003  -0.000012  -0.000049   0.000013   0.000010
     30      -0.021689   0.000246  -0.000300   0.000096  -0.020794   0.006668
     31      -0.156574  -0.003185   0.000653  -0.000262   0.341591  -0.102227
     32      -0.000047   0.000005  -0.000140  -0.000436  -0.000000  -0.000001
     33      -0.216250   0.002683  -0.003862   0.001217   0.319212  -0.388565
     34      -0.225697  -0.000704   0.002019  -0.000635  -0.158706   0.192473
     35      -0.000222   0.000002  -0.000052  -0.000153   0.000009  -0.000009
     36      -0.030262  -0.485201  -0.728192   0.226518  -0.003076   0.018288
     37       0.029293  -0.218403  -0.344434   0.107210  -0.003628   0.009863
     38       0.000186   0.000033  -0.005309  -0.017030  -0.000016  -0.000019
     39       0.038750   0.294986  -0.267998  -0.287166   0.002460   0.004497
     40      -0.041570  -0.176674   0.177745   0.173358  -0.003059  -0.003132
     41       0.025560  -0.491312   0.465830   0.446453  -0.004958  -0.008127
     42       0.038504   0.292990  -0.055796   0.390809   0.003183   0.004987
     43      -0.041891  -0.175126   0.046665  -0.244505  -0.003440  -0.003372
     44      -0.025472   0.487894  -0.126991   0.635471   0.006070   0.008854
                  42         43         44    
      0      -0.032567   0.025863   0.015780
      1       0.015646  -0.014916  -0.009574
      2       0.000003   0.000004   0.000003
      3      -0.016532   0.046388   0.039278
      4      -0.014183   0.031954   0.023928
      5       0.000005  -0.000002   0.000000
      6      -0.003587  -0.003837  -0.003410
      7       0.059256  -0.000659   0.056432
      8      -0.000003  -0.000003  -0.000002
      9       0.016120   0.047108  -0.042491
     10      -0.011297  -0.024924   0.019464
     11      -0.000001   0.000001  -0.000001
     12       0.035744   0.024806  -0.016020
     13       0.022578   0.018153  -0.012267
     14       0.000001   0.000002   0.000003
     15      -0.000320  -0.002459   0.000154
     16       0.002424  -0.000062  -0.001332
     17      -0.000002   0.000001  -0.000005
     18      -0.403659  -0.284190   0.181581
     19      -0.258643  -0.185349   0.119080
     20       0.000029   0.000023  -0.000010
     21       0.000423   0.000730  -0.000050
     22       0.000408   0.000071  -0.000430
     23      -0.000054   0.000024   0.000026
     24       0.367670  -0.294152  -0.176963
     25      -0.178140   0.146086   0.088058
     26      -0.000001  -0.000003  -0.000015
     27       0.210032  -0.531386  -0.423181
     28       0.142265  -0.351732  -0.275689
     29      -0.000013   0.000011   0.000013
     30       0.042227   0.003385   0.037726
     31      -0.691173   0.006242  -0.620619
     32      -0.000005  -0.000005  -0.000003
     33      -0.202089  -0.538204   0.460378
     34       0.104655   0.270746  -0.227627
     35      -0.000006  -0.000013   0.000020
     36      -0.007440  -0.004555   0.005462
     37      -0.005958  -0.001972   0.003829
     38      -0.000006   0.000008   0.000003
     39       0.000713  -0.001089  -0.002149
     40      -0.002240   0.000637   0.002327
     41      -0.001917   0.002177   0.003586
     42       0.001117  -0.001322  -0.002332
     43      -0.002450   0.000745   0.002421
     44       0.002537  -0.002527  -0.003872


-----------
IR SPECTRUM
-----------

 Mode    freq (cm**-1)   T**2         TX         TY         TZ
-------------------------------------------------------------------
   7:       205.25    1.625168  ( -0.036253  -0.007616   1.274283)
   8:       338.82    0.251351  (  0.499636  -0.040380  -0.009200)
   9:       412.20    0.012416  (  0.014908  -0.019287   0.108728)
  10:       473.81    6.550666  ( -0.007344  -0.012747  -2.559385)
  11:       529.89    0.648296  ( -0.040523  -0.804142   0.002979)
  12:       635.13    0.087848  (  0.284416   0.083399   0.000186)
  13:       707.57   18.790996  ( -0.015993   0.033147  -4.334702)
  14:       740.15   43.658728  ( -0.022162  -0.014213   6.607423)
  15:       807.64    0.631716  ( -0.192251   0.771189   0.004819)
  16:       855.27    0.014054  (  0.031278   0.035077  -0.108835)
  17:       904.89    0.564410  (  0.004507  -0.012042   0.751162)
  18:       967.72    0.002460  ( -0.009248  -0.020444   0.044230)
  19:       992.65    0.093475  ( -0.013342  -0.017019  -0.304972)
  20:      1006.86    1.711827  (  0.323506  -1.267615  -0.017952)
  21:      1018.07    1.010696  ( -0.069962   1.002869   0.007421)
  22:      1055.70    2.766544  ( -0.024045   1.663019   0.018229)
  23:      1071.15    5.010245  (  0.004808  -0.055418   2.237666)
  24:      1115.13    6.676408  ( -2.566752   0.296777  -0.010678)
  25:      1182.29    1.798349  ( -1.326264   0.198428   0.000586)
  26:      1200.55    1.209320  ( -0.122614   1.092833  -0.000890)
  27:      1252.24    1.686781  (  0.309661  -1.261263   0.010286)
  28:      1346.22    0.679776  ( -0.517288  -0.642003   0.004617)
  29:      1361.02    0.272609  (  0.307794  -0.421742  -0.002383)
  30:      1418.22    0.318157  (  0.548821   0.126909  -0.029102)
  31:      1474.79    1.107519  (  1.008879  -0.297352   0.035571)
  32:      1492.61    5.686728  (  0.009440   0.008950   2.384651)
  33:      1508.18   11.944195  (  3.422528   0.479596  -0.021960)
  34:      1543.32   16.668608  (  0.133231  -4.080538   0.008372)
  35:      1647.04    0.463965  (  0.678234   0.062775  -0.004714)
  36:      1662.61    9.269563  ( -0.212964   3.037130  -0.007059)
  37:      3039.49   33.818668  ( -0.575935   5.786782   0.011220)
  38:      3113.01   22.565114  (  4.443028   0.994447  -1.354878)
  39:      3113.63   20.783090  ( -1.397481  -0.292890  -4.329475)
  40:      3170.70   10.962885  ( -0.843769   3.201707  -0.003630)
  41:      3172.66    4.688006  ( -2.061886  -0.660782  -0.001135)
  42:      3183.38   16.278786  ( -0.032012   4.034567  -0.005756)
  43:      3192.36   50.886166  (  7.112883   0.541351  -0.000117)
  44:      3201.67   16.415811  ( -0.388659   4.032958   0.002151)

The first frequency considered to be a vibration is 7
The total number of vibrations considered is 38


--------------------------
THERMOCHEMISTRY AT 298.15K
--------------------------

Temperature         ... 298.15 K
Pressure            ... 1.00 atm
Total Mass          ... 92.14 AMU

Throughout the following assumptions are being made:
  (1) The electronic state is orbitally nondegenerate
  (2) There are no thermally accessible electronically excited states
  (3) Hindered rotations indicated by low frequency modes are not
      treated as such but are treated as vibrations and this may
      cause some error
  (4) All equations used are the standard statistical mechanics
      equations for an ideal gas
  (5) All vibrations are strictly harmonic

freq.     205.25  E(vib)   ...       0.35 
freq.     338.82  E(vib)   ...       0.23 
freq.     412.20  E(vib)   ...       0.19 
freq.     473.81  E(vib)   ...       0.15 
freq.     529.89  E(vib)   ...       0.13 
freq.     635.13  E(vib)   ...       0.09 
freq.     707.57  E(vib)   ...       0.07 
freq.     740.15  E(vib)   ...       0.06 
freq.     807.64  E(vib)   ...       0.05 
freq.     855.27  E(vib)   ...       0.04 
freq.     904.89  E(vib)   ...       0.03 
freq.     967.72  E(vib)   ...       0.03 
freq.     992.65  E(vib)   ...       0.02 
freq.    1006.86  E(vib)   ...       0.02 
freq.    1018.07  E(vib)   ...       0.02 
freq.    1055.70  E(vib)   ...       0.02 
freq.    1071.15  E(vib)   ...       0.02 
freq.    1115.13  E(vib)   ...       0.01 
freq.    1182.29  E(vib)   ...       0.01 
freq.    1200.55  E(vib)   ...       0.01 
freq.    1252.24  E(vib)   ...       0.01 
freq.    1346.22  E(vib)   ...       0.01 
freq.    1361.02  E(vib)   ...       0.01 
freq.    1418.22  E(vib)   ...       0.00 
freq.    1474.79  E(vib)   ...       0.00 
freq.    1492.61  E(vib)   ...       0.00 
freq.    1508.18  E(vib)   ...       0.00 
freq.    1543.32  E(vib)   ...       0.00 
freq.    1647.04  E(vib)   ...       0.00 
freq.    1662.61  E(vib)   ...       0.00 
freq.    3039.49  E(vib)   ...       0.00 
freq.    3113.01  E(vib)   ...       0.00 
freq.    3113.63  E(vib)   ...       0.00 
freq.    3170.70  E(vib)   ...       0.00 
freq.    3172.66  E(vib)   ...       0.00 
freq.    3183.38  E(vib)   ...       0.00 
freq.    3192.36  E(vib)   ...       0.00 
freq.    3201.67  E(vib)   ...       0.00 

------------
INNER ENERGY
------------

The inner energy is: U= E(el) + E(ZPE) + E(vib) + E(rot) + E(trans)
    E(el)   - is the total energy from the electronic structure calculation
              = E(kin-el) + E(nuc-el) + E(el-el) + E(nuc-nuc)
    E(ZPE)  - the the zero temperature vibrational energy from the frequency calculation
    E(vib)  - the the finite temperature correction to E(ZPE) due to population
              of excited vibrational states
    E(rot)  - is the rotational thermal energy
    E(trans)- is the translational thermal energy

Summary of contributions to the inner energy U:
Electronic energy                ...   -271.39116364 Eh
Zero point energy                ...      0.12783689 Eh      80.22 kcal/mol
Thermal vibrational correction   ...      0.00254194 Eh       1.60 kcal/mol
Thermal rotational correction    ...      0.00141627 Eh       0.89 kcal/mol
Thermal translational correction ...      0.00141627 Eh       0.89 kcal/mol
-----------------------------------------------------------------------
Total thermal energy                   -271.25795227 Eh


Summary of corrections to the electronic energy:
(perhaps to be used in another calculation)
Total thermal correction                  0.00537448 Eh       3.37 kcal/mol
Non-thermal (ZPE) correction              0.12783689 Eh      80.22 kcal/mol
-----------------------------------------------------------------------
Total correction                          0.13321137 Eh      83.59 kcal/mol


--------
ENTHALPY
--------

The enthalpy is H = U + kB*T
                kB is Boltzmann's constant
Total free energy                 ...   -271.25795227 Eh 
Thermal Enthalpy correction       ...      0.00094421 Eh       0.59 kcal/mol
-----------------------------------------------------------------------
Total Enthalpy                    ...   -271.25700806 Eh


Vibrational entropy computed according to the QRRHO of S. Grimme
Chem.Eur.J. 2012 18 9955


-------
ENTROPY
-------

The entropy contributions are T*S = T*(S(el)+S(vib)+S(rot)+S(trans)
     S(el)   - electronic entropy
     S(vib)  - vibrational entropy
     S(rot)  - rotational entropy
     S(trans)- translational entropy
The entropies will be listed as mutliplied by the temperature to get
units of energy

Electronic entropy                ...      0.00000000 Eh      0.00 kcal/mol
Vibrational entropy               ...      0.00371910 Eh      2.33 kcal/mol
Rotational entropy                ...      0.01177949 Eh      7.39 kcal/mol
Translational entropy             ...      0.01875532 Eh     11.77 kcal/mol
-----------------------------------------------------------------------
Final entropy term                ...      0.03425391 Eh     21.49 kcal/mol


CAUTION: The rotational entropy is not quite correctly treated here
         because it includes a symmetry number that is not yet correctly
         implemented in ORCA!
For a nonlinear molecule the correct rotational entropy is:
    S(rot) = R*(ln(qrot/sn)+1.5)
    R    = 8.31441 J/mol/K = 1.987191683e-3 kcal/mol/K
    qrot = 175341.2112217
    sn is the rotational symmetry number. We have assumed 3 here
       if it is different for your molecule then you should correct
       the printed rotational entropy by manually evaluating the equation
       as given above

For convenience we print out the resulting values for sn=1 - 12:
 sn= 1  qrot/sn=  175341.2112 T*S(rot)=     8.04 kcal/mol T*S(tot)=    22.15 kcal/mol
 sn= 2  qrot/sn=   87670.6056 T*S(rot)=     7.63 kcal/mol T*S(tot)=    21.73 kcal/mol
 sn= 3  qrot/sn=   58447.0704 T*S(rot)=     7.39 kcal/mol T*S(tot)=    21.49 kcal/mol
 sn= 4  qrot/sn=   43835.3028 T*S(rot)=     7.22 kcal/mol T*S(tot)=    21.32 kcal/mol
 sn= 5  qrot/sn=   35068.2422 T*S(rot)=     7.09 kcal/mol T*S(tot)=    21.19 kcal/mol
 sn= 6  qrot/sn=   29223.5352 T*S(rot)=     6.98 kcal/mol T*S(tot)=    21.08 kcal/mol
 sn= 7  qrot/sn=   25048.7445 T*S(rot)=     6.89 kcal/mol T*S(tot)=    20.99 kcal/mol
 sn= 8  qrot/sn=   21917.6514 T*S(rot)=     6.81 kcal/mol T*S(tot)=    20.91 kcal/mol
 sn= 9  qrot/sn=   19482.3568 T*S(rot)=     6.74 kcal/mol T*S(tot)=    20.84 kcal/mol
 sn=10  qrot/sn=   17534.1211 T*S(rot)=     6.68 kcal/mol T*S(tot)=    20.78 kcal/mol
 sn=11  qrot/sn=   15940.1101 T*S(rot)=     6.62 kcal/mol T*S(tot)=    20.72 kcal/mol
 sn=12  qrot/sn=   14611.7676 T*S(rot)=     6.57 kcal/mol T*S(tot)=    20.67 kcal/mol


-------------------
GIBBS FREE ENTHALPY
-------------------

The Gibbs free enthalpy is G = H - T*S

Total enthalpy                    ...   -271.25700806 Eh 
Total entropy correction          ...     -0.03425391 Eh    -21.49 kcal/mol
-----------------------------------------------------------------------
Final Gibbs free enthalpy         ...   -271.29126197 Eh

For completeness - the Gibbs free enthalpy minus the electronic energy
G-E(el)                           ...      0.09990167 Eh     62.69 kcal/mol


Total Time for Numerical Frequencies  :      8979.709 sec
Time for Reference State(s)           :        70.599 sec
Time for Displacements                :      8908.355 sec

Timings for individual modules:

Sum of individual times         ...      216.616 sec (=   3.610 min)
GTO integral calculation        ...        1.190 sec (=   0.020 min)   0.5 %
SCF iterations                  ...      126.101 sec (=   2.102 min)  58.2 %
SCF Gradient evaluation         ...       89.325 sec (=   1.489 min)  41.2 %
                             ****ORCA TERMINATED NORMALLY****
TOTAL RUN TIME: 0 days 2 hours 32 minutes 6 seconds 300 msec
