
                                 *****************
                                 * O   R   C   A *
                                 *****************

           --- An Ab Initio, DFT and Semiempirical electronic structure package ---

                  #######################################################
                  #                        -***-                        #
                  #  Department of molecular theory and spectroscopy    #
                  #              Directorship: Frank Neese              #
                  # Max Planck Institute for Chemical Energy Conversion #
                  #                  D-45470 Muelheim/Ruhr              #
                  #                       Germany                       #
                  #                                                     #
                  #                  All rights reserved                #
                  #                        -***-                        #
                  #######################################################


                         Program Version 4.0.1 -  RELEASE  -


 With contributions from (in alphabetic order):
   Daniel Aravena         : Magnetic Properties
   Michael Atanasov       : Ab Initio Ligand Field Theory
   Ute Becker             : Parallelization
   Martin Brehm           : Molecular dynamics
   Dmytro Bykov           : SCF Hessian
   Vijay G. Chilkuri      : MRCI spin determinant printing
   Dipayan Datta          : RHF DLPNO-CCSD density
   Achintya Kumar Dutta   : EOM-CC, STEOM-CC
   Dmitry Ganyushin       : Spin-Orbit,Spin-Spin,Magnetic field MRCI
   Yang Guo               : DLPNO-NEVPT2, CIM, IAO-localization
   Andreas Hansen         : Spin unrestricted coupled pair/coupled cluster methods
   Lee Huntington         : MR-EOM, pCC
   Robert Izsak           : Overlap fitted RIJCOSX, COSX-SCS-MP3, EOM
   Christian Kollmar      : KDIIS, OOCD, Brueckner-CCSD(T), CCSD density
   Simone Kossmann        : Meta GGA functionals, TD-DFT gradient, OOMP2, MP2 Hessian
   Martin Krupicka        : AUTO-CI
   Dagmar Lenk            : GEPOL surface
   Dimitrios Liakos       : Extrapolation schemes; parallel MDCI
   Dimitrios Manganas     : ROCIS; embedding schemes
   Dimitrios Pantazis     : SARC Basis sets
   Taras Petrenko         : DFT Hessian,TD-DFT gradient, ASA, ECA, R-Raman, ABS, FL, XAS/XES, NRVS
   Peter Pinski           : DLPNO-MP2
   Christoph Reimann      : Effective Core Potentials
   Marius Retegan         : Local ZFS, SOC
   Christoph Riplinger    : Optimizer, TS searches, QM/MM, DLPNO-CCSD(T), (RO)-DLPNO pert. Triples
   Tobias Risthaus        : Range-separated hybrids, TD-DFT gradient, RPA, STAB
   Michael Roemelt        : Restricted open shell CIS
   Masaaki Saitow         : Open-shell DLPNO
   Barbara Sandhoefer     : DKH picture change effects
   Kantharuban Sivalingam : CASSCF convergence, NEVPT2, FIC-MRCI
   Georgi Stoychev        : AutoAux
   Boris Wezisla          : Elementary symmetry handling
   Frank Wennmohs         : Technical directorship


 We gratefully acknowledge several colleagues who have allowed us to
 interface, adapt or use parts of their codes:
   Stefan Grimme, W. Hujo, H. Kruse,             : VdW corrections, initial TS optimization,
                  C. Bannwarth                     DFT functionals, gCP, sTDA/sTD-DF
   Ed Valeev                                     : LibInt (2-el integral package), F12 methods
   Garnet Chan, S. Sharma, J. Yang, R. Olivares  : DMRG
   Ulf Ekstrom                                   : XCFun DFT Library
   Mihaly Kallay                                 : mrcc  (arbitrary order and MRCC methods)
   Andreas Klamt, Michael Diedenhofen            : otool_cosmo (COSMO solvation model)
   Jiri Pittner, Ondrej Demel                    : Mk-CCSD
   Frank Weinhold                                : gennbo (NPA and NBO analysis)
   Christopher J. Cramer and Donald G. Truhlar   : smd solvation model


 Your calculation uses the libint2 library for the computation of 2-el integrals
 For citations please refer to: http://libint.valeyev.net

 This ORCA versions uses:
   CBLAS   interface :  Fast vector & matrix operations
   LAPACKE interface :  Fast linear algebra routines
   SCALAPACK package :  Parallel linear algebra routines




*****************************************
The coordinations will be read from file: o-nitrotolueno.xyz
*****************************************


Your calculation utilizes the basis: 6-31G(d,p)
   H-He, Li-Ne : W. J. Hehre, R. Ditchfield and J.A. Pople, J. Chem. Phys. 56, 2257 (1972).
                 Note: He and Ne are unpublished basis sets taken from the Gaussian program.
                 Note: Li and B from J. D. Dill and J. A. Pople, J. Chem. Phys. 62, 2921 (1975).
   Na - Ar     : M. M. Francl, W. J. Pietro, W. J. Hehre, J. S. Binkley, M. S. Gordon, 
                 D. J. DeFrees and J. A. Pople, J. Chem. Phys. 77, 3654 (1982).
   K - Zn      : V. A. Rassolov, J. A. Pople, M. A. Ratner, and T. L. Windus, J. Chem. Phys. 109, 1223 (1998).

================================================================================
                                        WARNINGS
                       Please study these warnings very carefully!
================================================================================

Warning: TCutStore was < 0. Adjusted to Thresh (uncritical)

INFO   : the flag for use of LIBINT has been found!

================================================================================
                                       INPUT FILE
================================================================================
NAME = o-nitrotolueno.inp
|  1> ! B3LYP 6-31G(d,p) Freq
|  2> 
|  3> * xyzfile 0 1 o-nitrotolueno.xyz
|  4> 
|  5>                          ****END OF INPUT****
================================================================================

                       ****************************
                       * Single Point Calculation *
                       ****************************

---------------------------------
CARTESIAN COORDINATES (ANGSTROEM)
---------------------------------
  C     -4.425010    1.443660   -0.121420
  C     -4.369280    0.047660   -0.188850
  C     -3.155630   -0.619410   -0.029730
  C     -1.991260    0.107800    0.206770
  C     -2.054140    1.508020    0.281080
  C     -3.265320    2.203040    0.102280
  N     -0.808210    2.218300    0.551910
  C     -3.375280    3.700730    0.162500
  H     -5.388040    1.935650   -0.250590
  H     -5.279640   -0.520750   -0.368290
  H     -3.119510   -1.704840   -0.086710
  H     -1.047040   -0.417380    0.336000
  H     -2.572330    4.175680   -0.410300
  H     -3.340820    4.042740    1.201350
  H     -4.318840    4.045740   -0.274570
  O     -0.817620    3.076420    1.444820
  O      0.183510    1.893410   -0.116250

----------------------------
CARTESIAN COORDINATES (A.U.)
----------------------------
  NO LB      ZA    FRAG     MASS         X           Y           Z
   0 C     6.0000    0    12.011   -8.362057    2.728122   -0.229451
   1 C     6.0000    0    12.011   -8.256743    0.090064   -0.356875
   2 C     6.0000    0    12.011   -5.963276   -1.170515   -0.056182
   3 C     6.0000    0    12.011   -3.762936    0.203712    0.390739
   4 C     6.0000    0    12.011   -3.881762    2.849745    0.531164
   5 C     6.0000    0    12.011   -6.170561    4.163142    0.193281
   6 N     7.0000    0    14.007   -1.527296    4.191979    1.042959
   7 C     6.0000    0    12.011   -6.378355    6.993366    0.307080
   8 H     1.0000    0     1.008  -10.181920    3.657848   -0.473546
   9 H     1.0000    0     1.008   -9.977074   -0.984075   -0.695967
  10 H     1.0000    0     1.008   -5.895020   -3.221681   -0.163858
  11 H     1.0000    0     1.008   -1.978619   -0.788734    0.634948
  12 H     1.0000    0     1.008   -4.860999    7.890892   -0.775355
  13 H     1.0000    0     1.008   -6.313235    7.639671    2.270222
  14 H     1.0000    0     1.008   -8.161425    7.645341   -0.518862
  15 O     8.0000    0    15.999   -1.545078    5.813591    2.730314
  16 O     8.0000    0    15.999    0.346784    3.578026   -0.219681

--------------------------------
INTERNAL COORDINATES (ANGSTROEM)
--------------------------------
 C      0   0   0     0.000000000000     0.00000000     0.00000000
 C      1   0   0     1.398738230621     0.00000000     0.00000000
 C      2   1   0     1.394004261758   120.44936202     0.00000000
 C      3   2   1     1.393026967076   119.82050537     0.42083047
 C      4   3   2     1.403599629132   119.49328332   359.94490621
 C      1   2   3     1.404129826797   120.96628103     0.22527978
 N      5   4   3     1.459516403539   117.19778011   179.04931948
 C      6   1   2     1.502928137371   119.00530141   179.81780742
 H      1   2   3     1.089112404621   118.70914989   179.94884389
 H      2   1   3     1.088137845725   119.73327296   180.09455398
 H      3   2   1     1.087524555907   120.03584562   180.20330515
 H      4   3   2     1.088147891465   119.57137985   179.65329021
 H      8   6   1     1.094717335662   110.95991761   224.38996578
 H      8   6   1     1.094242959402   110.31619034   102.53037526
 H      8   6   1     1.095612868946   111.15113916   342.87742777
 O      7   5   4     1.238445295764   117.67821971   228.93379008
 O      7   5   4     1.239152878421   117.10039002    47.57342702

---------------------------
INTERNAL COORDINATES (A.U.)
---------------------------
 C      0   0   0     0.000000000000     0.00000000     0.00000000
 C      1   0   0     2.643232188919     0.00000000     0.00000000
 C      2   1   0     2.634286284242   120.44936202     0.00000000
 C      3   2   1     2.632439464940   119.82050537     0.42083047
 C      4   3   2     2.652418900733   119.49328332   359.94490621
 C      1   2   3     2.653420829116   120.96628103     0.22527978
 N      5   4   3     2.758086290655   117.19778011   179.04931948
 C      6   1   2     2.840122578595   119.00530141   179.81780742
 H      1   2   3     2.058124173791   118.70914989   179.94884389
 H      2   1   3     2.056282524376   119.73327296   180.09455398
 H      3   2   1     2.055123574578   120.03584562   180.20330515
 H      4   3   2     2.056301508073   119.57137985   179.65329021
 H      8   6   1     2.068715958458   110.95991761   224.38996578
 H      8   6   1     2.067819517241   110.31619034   102.53037526
 H      8   6   1     2.070408271108   111.15113916   342.87742777
 O      7   5   4     2.340322440837   117.67821971   228.93379008
 O      7   5   4     2.341659578277   117.10039002    47.57342702

---------------------
BASIS SET INFORMATION
---------------------
There are 4 groups of distinct atoms

 Group   1 Type C   : 10s4p1d contracted to 3s2p1d pattern {631/31/1}
 Group   2 Type N   : 10s4p1d contracted to 3s2p1d pattern {631/31/1}
 Group   3 Type H   : 4s1p contracted to 2s1p pattern {31/1}
 Group   4 Type O   : 10s4p1d contracted to 3s2p1d pattern {631/31/1}

Atom   0C    basis set group =>   1
Atom   1C    basis set group =>   1
Atom   2C    basis set group =>   1
Atom   3C    basis set group =>   1
Atom   4C    basis set group =>   1
Atom   5C    basis set group =>   1
Atom   6N    basis set group =>   2
Atom   7C    basis set group =>   1
Atom   8H    basis set group =>   3
Atom   9H    basis set group =>   3
Atom  10H    basis set group =>   3
Atom  11H    basis set group =>   3
Atom  12H    basis set group =>   3
Atom  13H    basis set group =>   3
Atom  14H    basis set group =>   3
Atom  15O    basis set group =>   4
Atom  16O    basis set group =>   4
------------------------------------------------------------------------------
                           ORCA GTO INTEGRAL CALCULATION
------------------------------------------------------------------------------

                         BASIS SET STATISTICS AND STARTUP INFO

 # of primitive gaussian shells          ...  185
 # of primitive gaussian functions       ...  319
 # of contracted shells                  ...   81
 # of contracted basis functions         ...  175
 Highest angular momentum                ...    2
 Maximum contraction depth               ...    6
 Integral package used                   ... LIBINT
 Integral threshhold            Thresh   ...  1.000e-10
 Primitive cut-off              TCut     ...  1.000e-11


------------------------------ INTEGRAL EVALUATION ----------------------------


 * One electron integrals 
 Pre-screening matrix                    ... done
 Shell pair data                         ... done (   0.003 sec)

-------------------------------------------------------------------------------
                                 ORCA SCF
-------------------------------------------------------------------------------

------------
SCF SETTINGS
------------
Hamiltonian:
 Density Functional     Method          .... DFT(GTOs)
 Exchange Functional    Exchange        .... B88
   X-Alpha parameter    XAlpha          ....  0.666667
   Becke's b parameter  XBeta           ....  0.004200
 Correlation Functional Correlation     .... LYP
 LDA part of GGA corr.  LDAOpt          .... VWN-5
 Gradients option       PostSCFGGA      .... off
 Hybrid DFT is turned on
   Fraction HF Exchange ScalHFX         ....  0.200000
   Scaling of DF-GGA-X  ScalDFX         ....  0.720000
   Scaling of DF-GGA-C  ScalDFC         ....  0.810000
   Scaling of DF-LDA-C  ScalLDAC        ....  1.000000
   Perturbative correction              ....  0.000000
   NL short-range parameter             ....  4.800000


General Settings:
 Integral files         IntName         .... o-nitrotolueno
 Hartree-Fock type      HFTyp           .... RHF
 Total Charge           Charge          ....    0
 Multiplicity           Mult            ....    1
 Number of Electrons    NEL             ....   72
 Basis Dimension        Dim             ....  175
 Nuclear Repulsion      ENuc            ....    503.0721667484 Eh

Convergence Acceleration:
 DIIS                   CNVDIIS         .... on
   Start iteration      DIISMaxIt       ....    12
   Startup error        DIISStart       ....  0.200000
   # of expansion vecs  DIISMaxEq       ....     5
   Bias factor          DIISBfac        ....   1.050
   Max. coefficient     DIISMaxC        ....  10.000
 Newton-Raphson         CNVNR           .... off
 SOSCF                  CNVSOSCF        .... on
   Start iteration      SOSCFMaxIt      ....   150
   Startup grad/error   SOSCFStart      ....  0.003300
 Level Shifting         CNVShift        .... on
   Level shift para.    LevelShift      ....    0.2500
   Turn off err/grad.   ShiftErr        ....    0.0010
 Zerner damping         CNVZerner       .... off
 Static damping         CNVDamp         .... on
   Fraction old density DampFac         ....    0.7000
   Max. Damping (<1)    DampMax         ....    0.9800
   Min. Damping (>=0)   DampMin         ....    0.0000
   Turn off err/grad.   DampErr         ....    0.1000
 Fernandez-Rico         CNVRico         .... off

SCF Procedure:
 Maximum # iterations   MaxIter         ....   125
 SCF integral mode      SCFMode         .... Direct
   Integral package                     .... LIBINT
 Reset frequeny         DirectResetFreq ....    20
 Integral Threshold     Thresh          ....  1.000e-10 Eh
 Primitive CutOff       TCut            ....  1.000e-11 Eh

Convergence Tolerance:
 Convergence Check Mode ConvCheckMode   .... Total+1el-Energy
 Convergence forced     ConvForced      .... 0
 Energy Change          TolE            ....  1.000e-06 Eh
 1-El. energy change                    ....  1.000e-03 Eh
 Orbital Gradient       TolG            ....  5.000e-05
 Orbital Rotation angle TolX            ....  5.000e-05
 DIIS Error             TolErr          ....  1.000e-06


Diagonalization of the overlap matrix:
Smallest eigenvalue                        ... 4.219e-04
Time for diagonalization                   ...    0.013 sec
Threshold for overlap eigenvalues          ... 1.000e-08
Number of eigenvalues below threshold      ... 0
Time for construction of square roots      ...    0.006 sec
Total time needed                          ...    0.019 sec

-------------------
DFT GRID GENERATION
-------------------

General Integration Accuracy     IntAcc      ...  4.340
Radial Grid Type                 RadialGrid  ... Gauss-Chebyshev
Angular Grid (max. acc.)         AngularGrid ... Lebedev-110
Angular grid pruning method      GridPruning ... 3 (G Style)
Weight generation scheme         WeightScheme... Becke
Basis function cutoff            BFCut       ...    1.0000e-10
Integration weight cutoff        WCut        ...    1.0000e-14
Grids for H and He will be reduced by one unit

# of grid points (after initial pruning)     ...  22284 (   0.0 sec)
# of grid points (after weights+screening)   ...  20620 (   0.1 sec)
nearest neighbour list constructed           ...    0.0 sec
Grid point re-assignment to atoms done       ...    0.0 sec
Grid point division into batches done        ...    0.0 sec
Reduced shell lists constructed in    0.4 sec

Total number of grid points                  ...    20620
Total number of batches                      ...      332
Average number of points per batch           ...       62
Average number of grid points per atom       ...     1213
Average number of shells per batch           ...    52.03 (64.24%)
Average number of basis functions per batch  ...   113.10 (64.63%)
Average number of large shells per batch     ...    38.48 (73.96%)
Average number of large basis fcns per batch ...    83.58 (73.90%)
Maximum spatial batch extension              ...  20.22, 20.24, 28.12 au
Average spatial batch extension              ...   3.58,  3.63,  4.19 au

Time for grid setup =    0.586 sec

------------------------------
INITIAL GUESS: MODEL POTENTIAL
------------------------------
Loading Hartree-Fock densities                     ... done
Calculating cut-offs                               ... done
Setting up the integral package                    ... done
Initializing the effective Hamiltonian             ... done
Starting the Coulomb interaction                   ... done (   0.4 sec)
Reading the grid                                   ... done
Mapping shells                                     ... done
Starting the XC term evaluation                    ... done (   0.5 sec)
  promolecular density results
     # of electrons  =     71.995924077
     EX              =    -61.003135601
     EC              =     -2.466362504
     EX+EC           =    -63.469498105
Transforming the Hamiltonian                       ... done (   0.0 sec)
Diagonalizing the Hamiltonian                      ... done (   0.0 sec)
Back transforming the eigenvectors                 ... done (   0.0 sec)
Now organizing SCF variables                       ... done
                      ------------------
                      INITIAL GUESS DONE (   1.7 sec)
                      ------------------
--------------
SCF ITERATIONS
--------------
ITER       Energy         Delta-E        Max-DP      RMS-DP      [F,P]     Damp
               ***  Starting incremental Fock matrix formation  ***
  0   -475.5111109750   0.000000000000 0.08221569  0.00230468  0.2442976 0.7000
  1   -475.6475589229  -0.136447947911 0.03928726  0.00144394  0.0885237 0.7000
                               ***Turning on DIIS***
  2   -475.6948695600  -0.047310637143 0.06349764  0.00220490  0.0364542 0.0000
  3   -475.7799664569  -0.085096896909 0.02940016  0.00098517  0.0455730 0.0000
  4   -475.7933638666  -0.013397409692 0.01223502  0.00034904  0.0188998 0.0000
  5   -475.7949861509  -0.001622284211 0.00297098  0.00010178  0.0036255 0.0000
                      *** Initiating the SOSCF procedure ***
                           *** Shutting down DIIS ***
                      *** Re-Reading the Fockian *** 
                      *** Removing any level shift *** 
ITER      Energy       Delta-E        Grad      Rot      Max-DP    RMS-DP
  6   -475.79503885  -0.0000527032  0.000236  0.000236  0.001273  0.000046
               *** Restarting incremental Fock matrix formation ***
  7   -475.79504367  -0.0000048180  0.000289  0.001155  0.001730  0.000038
  8   -475.79503796   0.0000057103  0.000577  0.000816  0.001079  0.000025
  9   -475.79504607  -0.0000081120  0.000051  0.000116  0.000209  0.000005
                 **** Energy Check signals convergence ****
              ***Rediagonalizing the Fockian in SOSCF/NRSCF***

               *****************************************************
               *                     SUCCESS                       *
               *           SCF CONVERGED AFTER  10 CYCLES          *
               *****************************************************

Setting up the final grid:

General Integration Accuracy     IntAcc      ...  4.670
Radial Grid Type                 RadialGrid  ... Gauss-Chebyshev
Angular Grid (max. acc.)         AngularGrid ... Lebedev-302
Angular grid pruning method      GridPruning ... 3 (G Style)
Weight generation scheme         WeightScheme... Becke
Basis function cutoff            BFCut       ...    1.0000e-10
Integration weight cutoff        WCut        ...    1.0000e-14
Grids for H and He will be reduced by one unit

# of grid points (after initial pruning)     ...  85878 (   0.1 sec)
# of grid points (after weights+screening)   ...  78201 (   0.5 sec)
nearest neighbour list constructed           ...    0.0 sec
Grid point re-assignment to atoms done       ...    0.0 sec
Grid point division into batches done        ...    0.5 sec
Reduced shell lists constructed in    2.2 sec

Total number of grid points                  ...    78201
Total number of batches                      ...     1231
Average number of points per batch           ...       63
Average number of grid points per atom       ...     4600
Average number of shells per batch           ...    46.86 (57.86%)
Average number of basis functions per batch  ...   101.34 (57.91%)
Average number of large shells per batch     ...    33.78 (72.08%)
Average number of large basis fcns per batch ...    73.04 (72.08%)
Maximum spatial batch extension              ...  18.23, 20.89, 20.90 au
Average spatial batch extension              ...   2.41,  2.46,  2.59 au

Final grid set up in    2.8 sec
Final integration                            ... done (   2.6 sec)
Change in XC energy                          ...    -0.000307035
Integrated number of electrons               ...    72.000062907
Previous integrated no of electrons          ...    72.000546744

----------------
TOTAL SCF ENERGY
----------------

Total Energy       :         -475.79535300 Eh          -12947.04977 eV

Components:
Nuclear Repulsion  :          503.07216675 Eh           13689.28961 eV
Electronic Energy  :         -978.86751975 Eh          -26636.33938 eV
One Electron Energy:        -1643.33694294 Eh          -44717.47161 eV
Two Electron Energy:          664.46942319 Eh           18081.13223 eV

Virial components:
Potential Energy   :         -948.58076965 Eh          -25812.19501 eV
Kinetic Energy     :          472.78541665 Eh           12865.14524 eV
Virial Ratio       :            2.00636639


DFT components:
N(Alpha)           :       36.000031453425 electrons
N(Beta)            :       36.000031453425 electrons
N(Total)           :       72.000062906849 electrons
E(X)               :      -49.117389191981 Eh       
E(C)               :       -2.906192718374 Eh       
E(XC)              :      -52.023581910355 Eh       

---------------
SCF CONVERGENCE
---------------

  Last Energy change         ...    1.0475e-07  Tolerance :   1.0000e-06
  Last MAX-Density change    ...    1.5066e-04  Tolerance :   1.0000e-05
  Last RMS-Density change    ...    3.1017e-06  Tolerance :   1.0000e-06
  Last Orbital Gradient      ...    1.1146e-04  Tolerance :   5.0000e-05
  Last Orbital Rotation      ...    8.6974e-05  Tolerance :   5.0000e-05

             **** THE GBW FILE WAS UPDATED (o-nitrotolueno.gbw) ****
             **** DENSITY FILE WAS UPDATED (o-nitrotolueno.scfp.tmp) ****
             **** ENERGY FILE WAS UPDATED (o-nitrotolueno.en.tmp) ****
----------------
ORBITAL ENERGIES
----------------

  NO   OCC          E(Eh)            E(eV) 
   0   2.0000     -19.177341      -521.8420 
   1   2.0000     -19.176405      -521.8165 
   2   2.0000     -14.562880      -396.2761 
   3   2.0000     -10.245469      -278.7934 
   4   2.0000     -10.221810      -278.1496 
   5   2.0000     -10.212233      -277.8890 
   6   2.0000     -10.206031      -277.7202 
   7   2.0000     -10.203741      -277.6579 
   8   2.0000     -10.203570      -277.6532 
   9   2.0000     -10.187577      -277.2181 
  10   2.0000      -1.214933       -33.0600 
  11   2.0000      -1.043848       -28.4046 
  12   2.0000      -0.886081       -24.1115 
  13   2.0000      -0.803688       -21.8695 
  14   2.0000      -0.788179       -21.4474 
  15   2.0000      -0.716676       -19.5017 
  16   2.0000      -0.680631       -18.5209 
  17   2.0000      -0.619331       -16.8528 
  18   2.0000      -0.587744       -15.9933 
  19   2.0000      -0.545763       -14.8510 
  20   2.0000      -0.526792       -14.3347 
  21   2.0000      -0.506680       -13.7875 
  22   2.0000      -0.499151       -13.5826 
  23   2.0000      -0.467083       -12.7100 
  24   2.0000      -0.454956       -12.3800 
  25   2.0000      -0.433247       -11.7893 
  26   2.0000      -0.426046       -11.5933 
  27   2.0000      -0.400167       -10.8891 
  28   2.0000      -0.373870       -10.1735 
  29   2.0000      -0.372204       -10.1282 
  30   2.0000      -0.362867        -9.8741 
  31   2.0000      -0.305573        -8.3151 
  32   2.0000      -0.301316        -8.1992 
  33   2.0000      -0.298882        -8.1330 
  34   2.0000      -0.264550        -7.1988 
  35   2.0000      -0.260225        -7.0811 
  36   0.0000      -0.078657        -2.1404 
  37   0.0000      -0.019564        -0.5324 
  38   0.0000      -0.010218        -0.2781 
  39   0.0000       0.081176         2.2089 
  40   0.0000       0.111314         3.0290 
  41   0.0000       0.127819         3.4781 
  42   0.0000       0.131044         3.5659 
  43   0.0000       0.149348         4.0640 
  44   0.0000       0.160613         4.3705 
  45   0.0000       0.176656         4.8071 
  46   0.0000       0.185522         5.0483 
  47   0.0000       0.193307         5.2602 
  48   0.0000       0.226407         6.1609 
  49   0.0000       0.266327         7.2471 
  50   0.0000       0.287912         7.8345 
  51   0.0000       0.303644         8.2626 
  52   0.0000       0.309130         8.4119 
  53   0.0000       0.335218         9.1218 
  54   0.0000       0.382962        10.4209 
  55   0.0000       0.463557        12.6140 
  56   0.0000       0.483674        13.1614 
  57   0.0000       0.496478        13.5099 
  58   0.0000       0.501818        13.6552 
  59   0.0000       0.531487        14.4625 
  60   0.0000       0.541722        14.7410 
  61   0.0000       0.570299        15.5186 
  62   0.0000       0.575778        15.6677 
  63   0.0000       0.579365        15.7653 
  64   0.0000       0.586855        15.9691 
  65   0.0000       0.600215        16.3327 
  66   0.0000       0.601698        16.3730 
  67   0.0000       0.629274        17.1234 
  68   0.0000       0.639737        17.4081 
  69   0.0000       0.669115        18.2075 
  70   0.0000       0.689621        18.7655 
  71   0.0000       0.708342        19.2750 
  72   0.0000       0.738062        20.0837 
  73   0.0000       0.741819        20.1859 
  74   0.0000       0.776116        21.1192 
  75   0.0000       0.796734        21.6802 
  76   0.0000       0.799066        21.7437 
  77   0.0000       0.804884        21.9020 
  78   0.0000       0.814859        22.1735 
  79   0.0000       0.841040        22.8859 
  80   0.0000       0.858818        23.3696 
  81   0.0000       0.874132        23.7863 
  82   0.0000       0.884515        24.0689 
  83   0.0000       0.899505        24.4768 
  84   0.0000       0.938088        25.5267 
  85   0.0000       0.939603        25.5679 
  86   0.0000       0.944044        25.6887 
  87   0.0000       0.963447        26.2167 
  88   0.0000       1.015327        27.6285 
  89   0.0000       1.038103        28.2482 
  90   0.0000       1.064227        28.9591 
  91   0.0000       1.070366        29.1261 
  92   0.0000       1.079985        29.3879 
  93   0.0000       1.098737        29.8981 
  94   0.0000       1.127043        30.6684 
  95   0.0000       1.171388        31.8751 
  96   0.0000       1.195208        32.5233 
  97   0.0000       1.201945        32.7066 
  98   0.0000       1.251124        34.0448 
  99   0.0000       1.294829        35.2341 
 100   0.0000       1.335107        36.3301 
 101   0.0000       1.346838        36.6493 
 102   0.0000       1.386255        37.7219 
 103   0.0000       1.394610        37.9493 
 104   0.0000       1.396632        38.0043 
 105   0.0000       1.434418        39.0325 
 106   0.0000       1.444226        39.2994 
 107   0.0000       1.494123        40.6571 
 108   0.0000       1.643465        44.7210 
 109   0.0000       1.658647        45.1341 
 110   0.0000       1.699007        46.2323 
 111   0.0000       1.712553        46.6009 
 112   0.0000       1.729708        47.0677 
 113   0.0000       1.758560        47.8529 
 114   0.0000       1.781536        48.4781 
 115   0.0000       1.806808        49.1657 
 116   0.0000       1.812429        49.3187 
 117   0.0000       1.839143        50.0456 
 118   0.0000       1.854031        50.4508 
 119   0.0000       1.865359        50.7590 
 120   0.0000       1.896830        51.6154 
 121   0.0000       1.907518        51.9062 
 122   0.0000       1.953530        53.1583 
 123   0.0000       1.960996        53.3614 
 124   0.0000       1.972196        53.6662 
 125   0.0000       1.981957        53.9318 
 126   0.0000       1.986773        54.0628 
 127   0.0000       2.024987        55.1027 
 128   0.0000       2.045884        55.6713 
 129   0.0000       2.061697        56.1016 
 130   0.0000       2.066686        56.2374 
 131   0.0000       2.093057        56.9550 
 132   0.0000       2.104836        57.2755 
 133   0.0000       2.134554        58.0842 
 134   0.0000       2.185078        59.4590 
 135   0.0000       2.190670        59.6112 
 136   0.0000       2.269324        61.7514 
 137   0.0000       2.273874        61.8753 
 138   0.0000       2.312674        62.9311 
 139   0.0000       2.347841        63.8880 
 140   0.0000       2.365863        64.3784 
 141   0.0000       2.392020        65.0902 
 142   0.0000       2.410288        65.5873 
 143   0.0000       2.417859        65.7933 
 144   0.0000       2.429264        66.1036 
 145   0.0000       2.494797        67.8869 
 146   0.0000       2.507902        68.2435 
 147   0.0000       2.518038        68.5193 
 148   0.0000       2.537490        69.0486 
 149   0.0000       2.551893        69.4405 
 150   0.0000       2.563213        69.7486 
 151   0.0000       2.629023        71.5393 
 152   0.0000       2.656213        72.2792 
 153   0.0000       2.665082        72.5206 
 154   0.0000       2.683298        73.0162 
 155   0.0000       2.717859        73.9567 
 156   0.0000       2.743641        74.6583 
 157   0.0000       2.755677        74.9858 
 158   0.0000       2.821379        76.7736 
 159   0.0000       2.835084        77.1466 
 160   0.0000       2.869050        78.0708 
 161   0.0000       2.889916        78.6386 
 162   0.0000       2.913684        79.2854 
 163   0.0000       3.021767        82.2265 
 164   0.0000       3.055899        83.1552 
 165   0.0000       3.099412        84.3393 
 166   0.0000       3.188569        86.7654 
 167   0.0000       3.199692        87.0681 
 168   0.0000       3.220253        87.6276 
 169   0.0000       3.312301        90.1323 
 170   0.0000       3.336006        90.7773 
 171   0.0000       3.424057        93.1733 
 172   0.0000       3.460562        94.1667 
 173   0.0000       3.468282        94.3767 
 174   0.0000       3.846407       104.6661 

                    ********************************
                    * MULLIKEN POPULATION ANALYSIS *
                    ********************************

-----------------------
MULLIKEN ATOMIC CHARGES
-----------------------
   0 C :   -0.132197
   1 C :   -0.062848
   2 C :   -0.102526
   3 C :   -0.067030
   4 C :    0.179512
   5 C :    0.126378
   6 N :    0.335643
   7 C :   -0.355932
   8 H :    0.097377
   9 H :    0.097865
  10 H :    0.106488
  11 H :    0.124022
  12 H :    0.127551
  13 H :    0.149173
  14 H :    0.106821
  15 O :   -0.365497
  16 O :   -0.364801
Sum of atomic charges:   -0.0000000

--------------------------------
MULLIKEN REDUCED ORBITAL CHARGES
--------------------------------
  0 C s       :     3.186546  s :     3.186546
      pz      :     1.004344  p :     2.911410
      px      :     0.969001
      py      :     0.938065
      dz2     :     0.002969  d :     0.034241
      dxz     :     0.003076
      dyz     :     0.005013
      dx2y2   :     0.011088
      dxy     :     0.012095
  1 C s       :     3.176008  s :     3.176008
      pz      :     0.956229  p :     2.851868
      px      :     0.953065
      py      :     0.942574
      dz2     :     0.002812  d :     0.034972
      dxz     :     0.003588
      dyz     :     0.005333
      dx2y2   :     0.010807
      dxy     :     0.012431
  2 C s       :     3.174496  s :     3.174496
      pz      :     0.990968  p :     2.893323
      px      :     0.919984
      py      :     0.982371
      dz2     :     0.003108  d :     0.034707
      dxz     :     0.005758
      dyz     :     0.002545
      dx2y2   :     0.012875
      dxy     :     0.010421
  3 C s       :     3.173905  s :     3.173905
      pz      :     0.965077  p :     2.858885
      px      :     0.964413
      py      :     0.929395
      dz2     :     0.003074  d :     0.034240
      dxz     :     0.003436
      dyz     :     0.005988
      dx2y2   :     0.011641
      dxy     :     0.010101
  4 C s       :     3.113350  s :     3.113350
      pz      :     1.050509  p :     2.659364
      px      :     0.753345
      py      :     0.855510
      dz2     :     0.004088  d :     0.047774
      dxz     :     0.005988
      dyz     :     0.006548
      dx2y2   :     0.013755
      dxy     :     0.017395
  5 C s       :     3.135725  s :     3.135725
      pz      :     0.941566  p :     2.696865
      px      :     0.896654
      py      :     0.858645
      dz2     :     0.003348  d :     0.041032
      dxz     :     0.006233
      dyz     :     0.006441
      dx2y2   :     0.011461
      dxy     :     0.013549
  6 N s       :     3.408001  s :     3.408001
      pz      :     1.016838  p :     3.106190
      px      :     1.035283
      py      :     1.054069
      dz2     :     0.036014  d :     0.150165
      dxz     :     0.032566
      dyz     :     0.021545
      dx2y2   :     0.027008
      dxy     :     0.033033
  7 C s       :     3.243698  s :     3.243698
      pz      :     1.072704  p :     3.080679
      px      :     1.052962
      py      :     0.955013
      dz2     :     0.006870  d :     0.031554
      dxz     :     0.005408
      dyz     :     0.005688
      dx2y2   :     0.008098
      dxy     :     0.005490
  8 H s       :     0.890429  s :     0.890429
      pz      :     0.002759  p :     0.012194
      px      :     0.006415
      py      :     0.003021
  9 H s       :     0.889989  s :     0.889989
      pz      :     0.002725  p :     0.012146
      px      :     0.005944
      py      :     0.003477
 10 H s       :     0.881303  s :     0.881303
      pz      :     0.002687  p :     0.012208
      px      :     0.001891
      py      :     0.007630
 11 H s       :     0.863673  s :     0.863673
      pz      :     0.002606  p :     0.012305
      px      :     0.006546
      py      :     0.003153
 12 H s       :     0.860876  s :     0.860876
      pz      :     0.003597  p :     0.011573
      px      :     0.004822
      py      :     0.003154
 13 H s       :     0.839199  s :     0.839199
      pz      :     0.006540  p :     0.011628
      px      :     0.002435
      py      :     0.002652
 14 H s       :     0.881806  s :     0.881806
      pz      :     0.003089  p :     0.011373
      px      :     0.005659
      py      :     0.002625
 15 O s       :     3.928352  s :     3.928352
      pz      :     1.273088  p :     4.400204
      px      :     1.829855
      py      :     1.297261
      dz2     :     0.010115  d :     0.036940
      dxz     :     0.004124
      dyz     :     0.012830
      dx2y2   :     0.005864
      dxy     :     0.004008
 16 O s       :     3.927265  s :     3.927265
      pz      :     1.444923  p :     4.400523
      px      :     1.374103
      py      :     1.581497
      dz2     :     0.006275  d :     0.037013
      dxz     :     0.012092
      dyz     :     0.003302
      dx2y2   :     0.007019
      dxy     :     0.008324


                     *******************************
                     * LOEWDIN POPULATION ANALYSIS *
                     *******************************

----------------------
LOEWDIN ATOMIC CHARGES
----------------------
   0 C :   -0.069819
   1 C :   -0.051547
   2 C :   -0.072261
   3 C :   -0.047196
   4 C :   -0.003915
   5 C :    0.007635
   6 N :    0.259624
   7 C :   -0.190060
   8 H :    0.079607
   9 H :    0.079728
  10 H :    0.082142
  11 H :    0.092027
  12 H :    0.085283
  13 H :    0.095360
  14 H :    0.076464
  15 O :   -0.210959
  16 O :   -0.212112

-------------------------------
LOEWDIN REDUCED ORBITAL CHARGES
-------------------------------
  0 C s       :     2.899057  s :     2.899057
      pz      :     0.989745  p :     3.088497
      px      :     1.043722
      py      :     1.055030
      dz2     :     0.005622  d :     0.082264
      dxz     :     0.005824
      dyz     :     0.010872
      dx2y2   :     0.029054
      dxy     :     0.030892
  1 C s       :     2.900609  s :     2.900609
      pz      :     0.948434  p :     3.066899
      px      :     1.056516
      py      :     1.061949
      dz2     :     0.005437  d :     0.084039
      dxz     :     0.006988
      dyz     :     0.011513
      dx2y2   :     0.028612
      dxy     :     0.031489
  2 C s       :     2.895624  s :     2.895624
      pz      :     0.980496  p :     3.092826
      px      :     1.056566
      py      :     1.055764
      dz2     :     0.006004  d :     0.083812
      dxz     :     0.012964
      dyz     :     0.004460
      dx2y2   :     0.032278
      dxy     :     0.028105
  3 C s       :     2.899246  s :     2.899246
      pz      :     0.958267  p :     3.065177
      px      :     1.067267
      py      :     1.039643
      dz2     :     0.005903  d :     0.082773
      dxz     :     0.006536
      dyz     :     0.013030
      dx2y2   :     0.030457
      dxy     :     0.026848
  4 C s       :     2.875339  s :     2.875339
      pz      :     1.038195  p :     3.011882
      px      :     0.943500
      py      :     1.030188
      dz2     :     0.008761  d :     0.116695
      dxz     :     0.012352
      dyz     :     0.013545
      dx2y2   :     0.037066
      dxy     :     0.044971
  5 C s       :     2.875713  s :     2.875713
      pz      :     0.935449  p :     3.016295
      px      :     1.042668
      py      :     1.038179
      dz2     :     0.006982  d :     0.100357
      dxz     :     0.013373
      dyz     :     0.012210
      dx2y2   :     0.032528
      dxy     :     0.035263
  6 N s       :     3.031655  s :     3.031655
      pz      :     1.105059  p :     3.353291
      px      :     1.138659
      py      :     1.109573
      dz2     :     0.076954  d :     0.355430
      dxz     :     0.079935
      dyz     :     0.057946
      dx2y2   :     0.063210
      dxy     :     0.077384
  7 C s       :     2.905721  s :     2.905721
      pz      :     1.103438  p :     3.219944
      px      :     1.097341
      py      :     1.019165
      dz2     :     0.013402  d :     0.064394
      dxz     :     0.009846
      dyz     :     0.011719
      dx2y2   :     0.017952
      dxy     :     0.011475
  8 H s       :     0.880365  s :     0.880365
      pz      :     0.008108  p :     0.040028
      px      :     0.022148
      py      :     0.009772
  9 H s       :     0.880539  s :     0.880539
      pz      :     0.007843  p :     0.039733
      px      :     0.020412
      py      :     0.011478
 10 H s       :     0.877818  s :     0.877818
      pz      :     0.007728  p :     0.040040
      px      :     0.005686
      py      :     0.026625
 11 H s       :     0.866634  s :     0.866634
      pz      :     0.007648  p :     0.041339
      px      :     0.022830
      py      :     0.010861
 12 H s       :     0.875672  s :     0.875672
      pz      :     0.011901  p :     0.039044
      px      :     0.017034
      py      :     0.010109
 13 H s       :     0.864945  s :     0.864945
      pz      :     0.024593  p :     0.039695
      px      :     0.006854
      py      :     0.008249
 14 H s       :     0.885111  s :     0.885111
      pz      :     0.009865  p :     0.038425
      px      :     0.020469
      py      :     0.008091
 15 O s       :     3.618671  s :     3.618671
      pz      :     1.347014  p :     4.514257
      px      :     1.800682
      py      :     1.366561
      dz2     :     0.017682  d :     0.078030
      dxz     :     0.007796
      dyz     :     0.032491
      dx2y2   :     0.012482
      dxy     :     0.007580
 16 O s       :     3.619279  s :     3.619279
      pz      :     1.476097  p :     4.514900
      px      :     1.460244
      py      :     1.578558
      dz2     :     0.011105  d :     0.077933
      dxz     :     0.027922
      dyz     :     0.006522
      dx2y2   :     0.017252
      dxy     :     0.015132


                      *****************************
                      * MAYER POPULATION ANALYSIS *
                      *****************************

  NA   - Mulliken gross atomic population
  ZA   - Total nuclear charge
  QA   - Mulliken gross atomic charge
  VA   - Mayer's total valence
  BVA  - Mayer's bonded valence
  FA   - Mayer's free valence

  ATOM       NA         ZA         QA         VA         BVA        FA
  0 C      6.1322     6.0000    -0.1322     3.9662     3.9662    -0.0000
  1 C      6.0628     6.0000    -0.0628     3.9318     3.9318    -0.0000
  2 C      6.1025     6.0000    -0.1025     3.9568     3.9568    -0.0000
  3 C      6.0670     6.0000    -0.0670     3.9143     3.9143    -0.0000
  4 C      5.8205     6.0000     0.1795     3.7515     3.7515     0.0000
  5 C      5.8736     6.0000     0.1264     3.9519     3.9519    -0.0000
  6 N      6.6644     7.0000     0.3356     3.8377     3.8377     0.0000
  7 C      6.3559     6.0000    -0.3559     3.8852     3.8852    -0.0000
  8 H      0.9026     1.0000     0.0974     0.9604     0.9604    -0.0000
  9 H      0.9021     1.0000     0.0979     0.9568     0.9568    -0.0000
 10 H      0.8935     1.0000     0.1065     0.9560     0.9560    -0.0000
 11 H      0.8760     1.0000     0.1240     0.9591     0.9591    -0.0000
 12 H      0.8724     1.0000     0.1276     0.9525     0.9525    -0.0000
 13 H      0.8508     1.0000     0.1492     0.9501     0.9501    -0.0000
 14 H      0.8932     1.0000     0.1068     0.9557     0.9557    -0.0000
 15 O      8.3655     8.0000    -0.3655     1.9056     1.9056     0.0000
 16 O      8.3648     8.0000    -0.3648     1.9118     1.9118     0.0000

  Mayer bond orders larger than 0.1
B(  0-C ,  1-C ) :   1.4371 B(  0-C ,  5-C ) :   1.4276 B(  0-C ,  8-H ) :   0.9358 
B(  1-C ,  2-C ) :   1.4379 B(  1-C ,  9-H ) :   0.9417 B(  2-C ,  3-C ) :   1.4432 
B(  2-C , 10-H ) :   0.9398 B(  3-C ,  4-C ) :   1.3896 B(  3-C , 11-H ) :   0.9311 
B(  4-C ,  5-C ) :   1.3952 B(  4-C ,  6-N ) :   0.7600 B(  5-C ,  7-C ) :   1.0128 
B(  6-N , 15-O ) :   1.5139 B(  6-N , 16-O ) :   1.5345 B(  7-C , 12-H ) :   0.9508 
B(  7-C , 13-H ) :   0.9400 B(  7-C , 14-H ) :   0.9530 B( 15-O , 16-O ) :   0.2896 


-------
TIMINGS
-------

Total SCF time: 0 days 0 hours 2 min 8 sec 

Total time                  ....     128.225 sec
Sum of individual times     ....     128.128 sec  ( 99.9%)

Fock matrix formation       ....     123.339 sec  ( 96.2%)
  XC integration            ....      10.189 sec  (  8.3% of F)
    Basis function eval.    ....       3.888 sec  ( 38.2% of XC)
    Density eval.           ....       2.616 sec  ( 25.7% of XC)
    XC-Functional eval.     ....       0.709 sec  (  7.0% of XC)
    XC-Potential eval.      ....       2.700 sec  ( 26.5% of XC)
Diagonalization             ....       0.134 sec  (  0.1%)
Density matrix formation    ....       0.012 sec  (  0.0%)
Population analysis         ....       0.026 sec  (  0.0%)
Initial guess               ....       1.095 sec  (  0.9%)
Orbital Transformation      ....       0.000 sec  (  0.0%)
Orbital Orthonormalization  ....       0.000 sec  (  0.0%)
DIIS solution               ....       0.048 sec  (  0.0%)
SOSCF solution              ....       0.073 sec  (  0.1%)
Grid generation             ....       3.402 sec  (  2.7%)

-------------------------   --------------------
FINAL SINGLE POINT ENERGY      -475.795353004129
-------------------------   --------------------


                            ***************************************
                            *     ORCA property calculations      *
                            ***************************************

                                    ---------------------
                                    Active property flags
                                    ---------------------
   (+) Dipole Moment


------------------------------------------------------------------------------
                       ORCA ELECTRIC PROPERTIES CALCULATION
------------------------------------------------------------------------------

Dipole Moment Calculation                       ... on
Quadrupole Moment Calculation                   ... off
Polarizability Calculation                      ... off
GBWName                                         ... o-nitrotolueno.gbw
Electron density file                           ... o-nitrotolueno.scfp.tmp
The origin for moment calculation is the CENTER OF MASS  = (-4.390398,  3.073208  0.469759)

-------------
DIPOLE MOMENT
-------------
                                X             Y             Z
Electronic contribution:      6.73277      -0.81833       1.20237
Nuclear contribution   :     -8.19120       0.19090      -1.48075
                        -----------------------------------------
Total Dipole Moment    :     -1.45843      -0.62742      -0.27838
                        -----------------------------------------
Magnitude (a.u.)       :      1.61189
Magnitude (Debye)      :      4.09709


-------------------------------------------------------------------------------
                               ORCA SCF HESSIAN
-------------------------------------------------------------------------------

Hessian of the Kohn-Sham DFT energy:
Kohn-Sham wavefunction type                      ... RKS
Hartree-Fock exchange scaling                    ...    0.200
Number of operators                              ...    1
Number of atoms                                  ...   17
Basis set dimensions                             ...  175
Integral neglect threshold                       ... 1.0e-10
Integral primitive cutoff                        ... 1.0e-11

Setting up DFT Hessian calculations              ... 
Electron density on the grid                     ... found on disk
Electron density on the final grid               ... found on disk
Building xc-kernel on the grid                   ... done   (      0.1 sec)
Building xc-kernel on the final grid             ... done   (      0.3 sec)
                                                     done   (      0.5 sec)

Nuclear repulsion Hessian                        ... done   (      0.0 sec)

----------------------------------------------
Forming right-hand sides of CP-SCF equations     ...
----------------------------------------------
One electron integral derivatives                ... done   (      0.6 sec)
Transforming the overlap derivative matrices     ... done   (      0.3 sec)
Making the Q(x) pseudodensities                  ... done   (      0.3 sec)
Adding the E*S(x)*S(y) terms to the Hessian      ... done   (      0.1 sec)
Calculating energy weighted overlap derivatives  ... done   (      0.0 sec)
Two electron integral derivatives                ... done   (     76.7 sec)
Exchange-correlation integral derivatives        ... done   (    130.9 sec)
tr(F(y)Q(x)) contribution to the Hessian         ... done   (      0.1 sec)
Response fock operator R(S(x))                   ... done   (    367.6 sec)
XC Response fock operator R(S(x))                ... done   (     56.1 sec)
tr(F(y)S(x)) contribution to the Hessian         ... done   (      0.0 sec)
Transforming and finalizing RHSs                 ... done   (      0.6 sec)

----------------------------------------------
Solving the CP-SCF equations                     ...
----------------------------------------------
     CP-SCF ITERATION   0: 
     CP-SCF ITERATION   1:      0.013882696890
     CP-SCF ITERATION   2:      0.001205156543
     CP-SCF ITERATION   3:      0.000353685061
     CP-SCF ITERATION   4:      0.000042963525
     CP-SCF ITERATION   5:      0.000005382139
     CP-SCF ITERATION   6:      0.000000988956

                                                 ... done   (   3893.8 sec)
Forming perturbed density Hessian contributions  ... done   (      0.1 sec)
Making the perturbed densities                   ... done   (      0.3 sec)
2nd integral derivative contribs                 ... done   (    487.2 sec)
Exchange-correlation Hessian                     ... done   (    110.1 sec)
Dipol derivatives                                ... done   (      3.2 sec)

Total SCF Hessian time: 0 days 1 hours 25 min 30 sec 

Writing the Hessian file to the disk             ... done


-----------------------
VIBRATIONAL FREQUENCIES
-----------------------

   0:         0.00 cm**-1
   1:         0.00 cm**-1
   2:         0.00 cm**-1
   3:         0.00 cm**-1
   4:         0.00 cm**-1
   5:         0.00 cm**-1
   6:        91.00 cm**-1
   7:       137.36 cm**-1
   8:       158.67 cm**-1
   9:       220.70 cm**-1
  10:       232.40 cm**-1
  11:       339.00 cm**-1
  12:       390.10 cm**-1
  13:       427.79 cm**-1
  14:       485.53 cm**-1
  15:       551.62 cm**-1
  16:       587.78 cm**-1
  17:       677.84 cm**-1
  18:       717.77 cm**-1
  19:       754.43 cm**-1
  20:       803.58 cm**-1
  21:       808.89 cm**-1
  22:       863.34 cm**-1
  23:       890.51 cm**-1
  24:       968.66 cm**-1
  25:      1002.60 cm**-1
  26:      1015.12 cm**-1
  27:      1072.58 cm**-1
  28:      1077.89 cm**-1
  29:      1121.06 cm**-1
  30:      1177.61 cm**-1
  31:      1196.98 cm**-1
  32:      1232.81 cm**-1
  33:      1309.35 cm**-1
  34:      1339.01 cm**-1
  35:      1398.18 cm**-1
  36:      1432.24 cm**-1
  37:      1469.04 cm**-1
  38:      1501.06 cm**-1
  39:      1512.00 cm**-1
  40:      1520.12 cm**-1
  41:      1585.41 cm**-1
  42:      1631.64 cm**-1
  43:      1645.57 cm**-1
  44:      3046.40 cm**-1
  45:      3110.52 cm**-1
  46:      3129.27 cm**-1
  47:      3164.11 cm**-1
  48:      3177.13 cm**-1
  49:      3186.15 cm**-1
  50:      3197.26 cm**-1


------------
NORMAL MODES
------------

These modes are the cartesian displacements weighted by the diagonal matrix
M(i,i)=1/sqrt(m[i]) where m[i] is the mass of the displaced atom
Thus, these vectors are normalized but *not* orthogonal

                  0          1          2          3          4          5    
      0       0.000000   0.000000   0.000000   0.000000   0.000000   0.000000
      1       0.000000   0.000000   0.000000   0.000000   0.000000   0.000000
      2       0.000000   0.000000   0.000000   0.000000   0.000000   0.000000
      3       0.000000   0.000000   0.000000   0.000000   0.000000   0.000000
      4       0.000000   0.000000   0.000000   0.000000   0.000000   0.000000
      5       0.000000   0.000000   0.000000   0.000000   0.000000   0.000000
      6       0.000000   0.000000   0.000000   0.000000   0.000000   0.000000
      7       0.000000   0.000000   0.000000   0.000000   0.000000   0.000000
      8       0.000000   0.000000   0.000000   0.000000   0.000000   0.000000
      9       0.000000   0.000000   0.000000   0.000000   0.000000   0.000000
     10       0.000000   0.000000   0.000000   0.000000   0.000000   0.000000
     11       0.000000   0.000000   0.000000   0.000000   0.000000   0.000000
     12       0.000000   0.000000   0.000000   0.000000   0.000000   0.000000
     13       0.000000   0.000000   0.000000   0.000000   0.000000   0.000000
     14       0.000000   0.000000   0.000000   0.000000   0.000000   0.000000
     15       0.000000   0.000000   0.000000   0.000000   0.000000   0.000000
     16       0.000000   0.000000   0.000000   0.000000   0.000000   0.000000
     17       0.000000   0.000000   0.000000   0.000000   0.000000   0.000000
     18       0.000000   0.000000   0.000000   0.000000   0.000000   0.000000
     19       0.000000   0.000000   0.000000   0.000000   0.000000   0.000000
     20       0.000000   0.000000   0.000000   0.000000   0.000000   0.000000
     21       0.000000   0.000000   0.000000   0.000000   0.000000   0.000000
     22       0.000000   0.000000   0.000000   0.000000   0.000000   0.000000
     23       0.000000   0.000000   0.000000   0.000000   0.000000   0.000000
     24       0.000000   0.000000   0.000000   0.000000   0.000000   0.000000
     25       0.000000   0.000000   0.000000   0.000000   0.000000   0.000000
     26       0.000000   0.000000   0.000000   0.000000   0.000000   0.000000
     27       0.000000   0.000000   0.000000   0.000000   0.000000   0.000000
     28       0.000000   0.000000   0.000000   0.000000   0.000000   0.000000
     29       0.000000   0.000000   0.000000   0.000000   0.000000   0.000000
     30       0.000000   0.000000   0.000000   0.000000   0.000000   0.000000
     31       0.000000   0.000000   0.000000   0.000000   0.000000   0.000000
     32       0.000000   0.000000   0.000000   0.000000   0.000000   0.000000
     33       0.000000   0.000000   0.000000   0.000000   0.000000   0.000000
     34       0.000000   0.000000   0.000000   0.000000   0.000000   0.000000
     35       0.000000   0.000000   0.000000   0.000000   0.000000   0.000000
     36       0.000000   0.000000   0.000000   0.000000   0.000000   0.000000
     37       0.000000   0.000000   0.000000   0.000000   0.000000   0.000000
     38       0.000000   0.000000   0.000000   0.000000   0.000000   0.000000
     39       0.000000   0.000000   0.000000   0.000000   0.000000   0.000000
     40       0.000000   0.000000   0.000000   0.000000   0.000000   0.000000
     41       0.000000   0.000000   0.000000   0.000000   0.000000   0.000000
     42       0.000000   0.000000   0.000000   0.000000   0.000000   0.000000
     43       0.000000   0.000000   0.000000   0.000000   0.000000   0.000000
     44       0.000000   0.000000   0.000000   0.000000   0.000000   0.000000
     45       0.000000   0.000000   0.000000   0.000000   0.000000   0.000000
     46       0.000000   0.000000   0.000000   0.000000   0.000000   0.000000
     47       0.000000   0.000000   0.000000   0.000000   0.000000   0.000000
     48       0.000000   0.000000   0.000000   0.000000   0.000000   0.000000
     49       0.000000   0.000000   0.000000   0.000000   0.000000   0.000000
     50       0.000000   0.000000   0.000000   0.000000   0.000000   0.000000
                  6          7          8          9         10         11    
      0      -0.006200   0.029093   0.001207   0.035061  -0.021188   0.005854
      1      -0.004424   0.004634  -0.007777   0.038472  -0.016507   0.017554
      2       0.041615  -0.152571  -0.035637   0.029367   0.143282   0.043998
      3       0.011486   0.021978   0.019002  -0.047631   0.012931  -0.144231
      4       0.002684   0.004973  -0.005803   0.036808  -0.003840   0.037662
      5      -0.039918  -0.122316  -0.097649  -0.020250  -0.057895  -0.067218
      6       0.025217  -0.011805   0.009373  -0.091778   0.033884  -0.175967
      7       0.010858  -0.008943  -0.002732  -0.055051   0.002892  -0.005032
      8      -0.098041   0.089148  -0.022072  -0.029656  -0.169292  -0.039012
      9       0.014549  -0.024703  -0.010824  -0.023526  -0.001777  -0.104479
     10       0.017934  -0.015571  -0.000540  -0.157931  -0.008254  -0.096111
     11      -0.089673   0.165107   0.075010   0.010234   0.027758   0.047337
     12       0.006598  -0.009717  -0.018108   0.041732  -0.027216   0.098101
     13       0.018905  -0.008971  -0.002374  -0.155600  -0.014776  -0.064543
     14      -0.015373   0.075063   0.080696   0.039767   0.172954   0.034638
     15      -0.017135   0.009317  -0.018342   0.096227  -0.017946   0.064669
     16       0.009001  -0.003224  -0.005669  -0.076923  -0.016348  -0.067864
     17       0.069878  -0.011207   0.051811   0.054674   0.138651   0.045235
     18       0.020632   0.003513  -0.005499  -0.058507  -0.015151   0.161660
     19      -0.010767   0.003276   0.005069   0.019490   0.004570   0.012848
     20      -0.028159  -0.019264   0.011952  -0.014383   0.052912   0.009151
     21      -0.116189  -0.027600   0.004169   0.318534   0.035898  -0.217927
     22      -0.002785  -0.012126  -0.003559  -0.066330  -0.000171  -0.090210
     23       0.207169   0.137839   0.024578   0.086389  -0.156790  -0.057433
     24      -0.017810   0.047329   0.003987   0.071867  -0.025155   0.062160
     25      -0.012850   0.012546  -0.011991   0.112739  -0.017291   0.134166
     26       0.095496  -0.258369  -0.068884   0.043505   0.167367   0.080852
     27       0.015418   0.039522   0.036632  -0.080510   0.031373  -0.176922
     28       0.000279   0.011733  -0.005112   0.098577   0.000657   0.113682
     29      -0.053153  -0.232515  -0.189228  -0.049788  -0.165666  -0.140620
     30       0.040032  -0.025090   0.020673  -0.180298   0.068017  -0.222392
     31       0.014162  -0.013041  -0.001010  -0.056433   0.014738  -0.005476
     32      -0.149801   0.158686  -0.047095  -0.067903  -0.373346  -0.076172
     33       0.027602  -0.042599  -0.015056  -0.063597   0.004396  -0.184412
     34       0.032142  -0.024470   0.001240  -0.235595  -0.005002  -0.242145
     35      -0.138869   0.262942   0.112660   0.003069  -0.007366   0.071441
     36      -0.005652   0.180037  -0.284343   0.401104   0.254976  -0.361711
     37       0.128281   0.101058  -0.066561  -0.182191  -0.148190   0.062897
     38       0.483459   0.535649  -0.449116   0.107853   0.033938  -0.133541
     39      -0.406115  -0.446311   0.569939   0.372529  -0.324768  -0.281063
     40      -0.127141  -0.174202   0.080065  -0.099326   0.211424   0.020331
     41       0.260735   0.210831  -0.028640   0.091724  -0.211524  -0.090344
     42      -0.035296   0.129731  -0.215930   0.376484   0.207890  -0.315477
     43      -0.021576   0.033234  -0.025519   0.087579  -0.037264  -0.358305
     44       0.014498  -0.169062   0.487724   0.080942  -0.560150  -0.054627
     45      -0.041842   0.074950   0.048479  -0.252041   0.080843   0.082656
     46       0.286236   0.014291   0.053824   0.134733   0.061141   0.037811
     47      -0.312063  -0.030120  -0.035021  -0.123867   0.000008  -0.014753
     48       0.109150  -0.060543  -0.040815   0.000006  -0.092183   0.224879
     49      -0.316815   0.015639  -0.035080   0.193246  -0.023548   0.169863
     50       0.247637  -0.120962  -0.021548  -0.004754  -0.050046   0.022688
                 12         13         14         15         16         17    
      0       0.095139   0.171634   0.038711   0.103657   0.117444   0.289015
      1       0.083352   0.087459   0.020983  -0.107181  -0.026819  -0.163464
      2       0.179100  -0.141557   0.080161  -0.036562   0.178322  -0.005352
      3       0.154536   0.040485   0.000878   0.019151   0.041434  -0.170060
      4       0.100914   0.085817   0.029636  -0.185386  -0.012885  -0.176092
      5      -0.126721   0.134916   0.095363   0.067866  -0.206833   0.010417
      6       0.080896  -0.006069   0.026958  -0.034422  -0.084495  -0.086736
      7       0.010826  -0.025963   0.003214  -0.288090  -0.157427   0.055612
      8       0.014776   0.022185  -0.192979  -0.086405   0.151866  -0.056903
      9       0.040574   0.061808  -0.012984  -0.180334  -0.041239  -0.224204
     10      -0.019007  -0.085580  -0.048445  -0.049507  -0.098146   0.277711
     11       0.193662  -0.164716   0.155721   0.006116  -0.127411   0.020995
     12       0.028173   0.043671   0.023810  -0.105301   0.052765   0.140487
     13      -0.019098  -0.085106  -0.025450   0.002005  -0.010360   0.218542
     14      -0.057834   0.153029  -0.016697   0.068072  -0.248136   0.014643
     15       0.064357   0.136051   0.105095  -0.038666   0.101999   0.174167
     16       0.103398   0.033739   0.010831   0.193632   0.032389  -0.014361
     17       0.114648   0.057506  -0.293269  -0.014993  -0.009354   0.084840
     18      -0.028269  -0.038851  -0.027445   0.047733  -0.071050   0.046802
     19      -0.116133  -0.062954   0.003897  -0.060503   0.101817   0.073807
     20      -0.120428   0.085647   0.049900   0.018134   0.060836  -0.037133
     21      -0.117866  -0.121059  -0.028665   0.009957  -0.001863   0.054110
     22       0.124648   0.030771  -0.016766   0.342393   0.056177  -0.107106
     23      -0.026615  -0.021960   0.010983   0.024616  -0.009028   0.013156
     24       0.061080   0.224699   0.007365   0.027562   0.083677   0.393712
     25       0.042519   0.134675   0.031296  -0.264372  -0.027145   0.019073
     26       0.282293  -0.336969   0.356396  -0.108076   0.431459  -0.057998
     27       0.167447  -0.032880  -0.051273  -0.085774  -0.026734  -0.269477
     28       0.150644   0.163110   0.048559  -0.043195   0.136656  -0.017305
     29      -0.345967   0.266780   0.302532   0.136420  -0.335632   0.023628
     30       0.024364  -0.104986   0.008822   0.073745  -0.170205   0.308134
     31       0.011322  -0.028633   0.009661  -0.281673  -0.178343   0.069922
     32      -0.014241   0.011416  -0.329403  -0.168580   0.466402  -0.041768
     33       0.038077   0.085002  -0.066729  -0.110634  -0.079419  -0.271602
     34       0.019028  -0.097816  -0.084426   0.063419  -0.126240   0.204426
     35       0.364082  -0.386294   0.407792  -0.022179   0.050659   0.033092
     36      -0.211617  -0.281008  -0.140382   0.062988  -0.054057   0.015281
     37       0.192926   0.200188   0.273262   0.286715   0.117331  -0.077128
     38      -0.102773  -0.109224   0.099491   0.050240  -0.029577  -0.018776
     39      -0.184083  -0.181939   0.003580   0.047901  -0.062642   0.013235
     40       0.274473   0.135466  -0.341155   0.290990   0.107191  -0.028308
     41      -0.074414  -0.055422   0.119475   0.040209  -0.023906  -0.012140
     42      -0.180780  -0.234458  -0.120468   0.035043  -0.031717   0.032053
     43      -0.103325  -0.260165  -0.024695   0.437084  -0.066502  -0.218466
     44      -0.071899  -0.005215   0.205487   0.035964  -0.042097  -0.019408
     45      -0.268398  -0.050255   0.016484   0.029666   0.105041  -0.155057
     46      -0.184585   0.037048   0.043263   0.001906   0.109259  -0.008176
     47      -0.067671  -0.006775   0.017124  -0.047632   0.085492   0.064304
     48       0.051525  -0.127749  -0.085297   0.094976  -0.161018  -0.032577
     49      -0.039820  -0.028366  -0.021645   0.089426  -0.033101  -0.121628
     50      -0.047707  -0.059047  -0.013352   0.012471   0.031784  -0.087319
                 18         19         20         21         22         23    
      0       0.045875   0.034222  -0.095950   0.046485   0.112598  -0.013143
      1       0.042190   0.015116  -0.045585   0.035464  -0.134827  -0.007411
      2      -0.158884   0.058823   0.006681   0.032815   0.001604   0.103757
      3       0.012494   0.021620  -0.125666   0.078953  -0.224418  -0.005984
      4       0.036937   0.024027  -0.079764   0.048178  -0.147729  -0.004367
      5       0.150955   0.041210   0.055552   0.103501  -0.041202   0.037380
      6       0.016383  -0.023634  -0.011694   0.010231   0.002235   0.008247
      7      -0.061394  -0.055946   0.075319  -0.033680   0.281079   0.006261
      8      -0.180874   0.067954   0.035587   0.025971   0.025307  -0.057039
      9       0.000279  -0.024266   0.116280  -0.109602   0.126011   0.014097
     10      -0.104510  -0.024747  -0.083699   0.089966   0.021913   0.004866
     11       0.131642   0.029496   0.060892   0.041643   0.030875  -0.085647
     12       0.010861  -0.044142   0.123986  -0.038592   0.021016  -0.004461
     13      -0.016541  -0.002509  -0.031606   0.037745  -0.069031   0.000005
     14      -0.238072   0.069663  -0.117601  -0.208522  -0.008326   0.042979
     15      -0.026687   0.027425  -0.000220  -0.025405   0.121385   0.002661
     16      -0.019806   0.005668  -0.021629   0.018591  -0.028659   0.002626
     17       0.242047  -0.059353   0.009452   0.036619   0.014372  -0.015945
     18      -0.085314  -0.060119   0.083755  -0.006341  -0.242179  -0.008982
     19       0.168149   0.128188   0.011869  -0.199159  -0.118623   0.008876
     20      -0.136131  -0.141463   0.076280   0.166016  -0.059071  -0.019431
     21      -0.004125   0.008287  -0.005431  -0.001137   0.030937   0.003404
     22      -0.013441  -0.032627   0.153896  -0.123511   0.143191   0.003077
     23       0.035586  -0.016417   0.011634  -0.003871   0.020162  -0.018414
     24       0.065216   0.087342  -0.016127   0.102579   0.208789   0.104608
     25       0.039012   0.025946   0.013373   0.014393   0.075783   0.021436
     26      -0.302683  -0.278690  -0.400149  -0.433081   0.091674  -0.653738
     27      -0.053420   0.065042   0.040741   0.131484  -0.137169   0.041060
     28       0.079060   0.117112  -0.181633   0.149483  -0.282199   0.012589
     29       0.352260  -0.470808  -0.484369  -0.467859  -0.053729  -0.254213
     30      -0.112561   0.041784   0.067105   0.125135   0.225225  -0.062997
     31      -0.072357  -0.022240   0.102347  -0.000746   0.293373  -0.019214
     32      -0.084284  -0.543251  -0.487297  -0.460196  -0.021567   0.386189
     33      -0.056170   0.084104   0.067647  -0.022150   0.047605  -0.102089
     34      -0.127422   0.043945  -0.226977   0.232483  -0.124755  -0.056907
     35       0.469627  -0.488261  -0.128847  -0.055862  -0.029118   0.516988
     36       0.006957  -0.027294  -0.020299   0.029724  -0.097787  -0.004531
     37      -0.189377   0.093685   0.166466  -0.182167   0.298561   0.088532
     38      -0.097890   0.043086  -0.001504  -0.005932  -0.034062   0.045921
     39      -0.060890  -0.000491  -0.016488   0.015850  -0.098444   0.003603
     40       0.325275  -0.180563   0.173825  -0.106353   0.241091  -0.130355
     41      -0.077312   0.034504   0.005952  -0.009947  -0.008397   0.027602
     42       0.026423  -0.030697  -0.013437   0.009019  -0.044205  -0.024663
     43      -0.140480  -0.038553   0.156804  -0.106958  -0.107464   0.033158
     44      -0.132457   0.065533   0.019352  -0.007638  -0.022729   0.065713
     45       0.072400   0.027449  -0.064460   0.051656   0.173798   0.002288
     46      -0.014836  -0.043580   0.069165   0.024401  -0.144656  -0.009703
     47       0.051981   0.024000   0.066589  -0.087975  -0.197935  -0.003506
     48      -0.027438   0.011703  -0.016721  -0.041451  -0.110789   0.004791
     49      -0.024416  -0.017811  -0.067596   0.095334   0.174161   0.001333
     50       0.072397   0.059371  -0.087018   0.012250   0.222435   0.006738
                 24         25         26         27         28         29    
      0       0.014634   0.004421   0.126882   0.026295   0.004894   0.155746
      1       0.004284   0.005975  -0.051728  -0.097802   0.051823  -0.091142
      2      -0.077334  -0.056431   0.013607   0.025474   0.039099   0.011468
      3      -0.001091  -0.021129   0.015684   0.130177  -0.087913  -0.087314
      4      -0.000172  -0.008785   0.024275   0.038672  -0.020694   0.001572
      5       0.065701   0.107610   0.008768   0.024120  -0.014041  -0.014931
      6      -0.011772   0.016413  -0.039492  -0.034582   0.016586  -0.025464
      7      -0.005869   0.001482   0.068930   0.139901  -0.078791   0.084644
      8       0.070078  -0.089637  -0.009328  -0.002267  -0.005580   0.004991
      9       0.013085  -0.006622   0.036944  -0.098023   0.078388   0.138134
     10       0.007596   0.000732  -0.035104  -0.018573   0.011443  -0.041051
     11      -0.115194   0.037446   0.011487  -0.012269   0.010574   0.008769
     12      -0.003487  -0.004150   0.012224  -0.041286  -0.016107  -0.280007
     13       0.003630  -0.003347  -0.008360  -0.038614   0.009932  -0.065334
     14       0.039652   0.005499  -0.000772   0.005033   0.020615  -0.051099
     15      -0.004720   0.004611  -0.059334  -0.000912   0.013302  -0.078771
     16       0.000694  -0.000494   0.004439  -0.013157   0.019508   0.089133
     17      -0.001157  -0.007023  -0.001138  -0.091490  -0.113204   0.020372
     18      -0.004535   0.002015  -0.003369   0.009218  -0.000313   0.028213
     19       0.007667  -0.000270  -0.001178   0.015837  -0.000749  -0.003389
     20      -0.014272   0.002241  -0.002968  -0.005229   0.002151   0.022546
     21      -0.006390   0.005466  -0.132512   0.023186  -0.047289   0.085478
     22      -0.003852   0.000708  -0.002829   0.012374  -0.029192  -0.040504
     23       0.012405   0.003166  -0.032425   0.106343   0.121447  -0.017675
     24      -0.071654  -0.059155   0.126454  -0.096971   0.132283   0.112593
     25      -0.027701  -0.006347  -0.064543  -0.392040   0.263336  -0.176477
     26       0.440378   0.363063   0.035427  -0.140352  -0.110337   0.048674
     27       0.066380   0.105405  -0.037692   0.239786  -0.175116  -0.252684
     28       0.026476   0.030087   0.131641  -0.108251   0.114953   0.276207
     29      -0.358457  -0.660051  -0.022166   0.011370  -0.044425  -0.019666
     30       0.072035  -0.086230  -0.170187  -0.194625   0.078931  -0.286184
     31       0.022256  -0.035727   0.066037   0.146809  -0.086984   0.078076
     32      -0.407252   0.549615   0.011952   0.008203   0.028713  -0.062737
     33      -0.138672   0.060594  -0.014204  -0.243969   0.200643   0.343760
     34      -0.077034   0.046669  -0.148917  -0.289158   0.231916   0.365827
     35       0.653285  -0.269892  -0.063465  -0.106511   0.049532   0.155086
     36       0.010936  -0.012995   0.246527  -0.066747   0.023668  -0.085828
     37      -0.070818   0.013700  -0.450692  -0.184929  -0.507179   0.223292
     38      -0.021887  -0.012821   0.122780  -0.198095  -0.197908  -0.021934
     39       0.009182  -0.010306   0.286965  -0.084186   0.040660  -0.150705
     40       0.065664   0.019767  -0.191528   0.507926   0.542957  -0.144797
     41      -0.012483  -0.002941   0.015654  -0.063040  -0.082345   0.025659
     42       0.018520   0.000838   0.094221   0.064102   0.127640  -0.071961
     43       0.003240  -0.031996   0.663919  -0.243535  -0.029481  -0.369063
     44      -0.035234  -0.012395   0.011901  -0.194466  -0.262837   0.067501
     45      -0.000661  -0.000677   0.001372  -0.002536  -0.001925  -0.011457
     46      -0.006735   0.001135   0.001494   0.012275  -0.005423   0.059720
     47      -0.001191   0.001079   0.001970   0.015517  -0.005346   0.056702
     48       0.006535  -0.000227  -0.002214   0.014926   0.003822   0.080609
     49      -0.001066  -0.000378  -0.000553  -0.007776  -0.000279  -0.025640
     50       0.001799  -0.000652   0.000925  -0.009163  -0.001726  -0.059968
                 30         31         32         33         34         35    
      0      -0.035350   0.010003  -0.006032   0.032106  -0.131708  -0.022362
      1      -0.087713   0.019737  -0.053699  -0.033120  -0.258013   0.028988
      2      -0.010846   0.002745  -0.003852   0.003653  -0.033475  -0.000197
      3      -0.000487   0.034592   0.039786   0.048958  -0.109891   0.021534
      4       0.057453  -0.043709   0.084825  -0.009682   0.213046  -0.045239
      5       0.003190   0.002839   0.011406   0.006617  -0.002800   0.000763
      6      -0.055660  -0.060851  -0.000731   0.014419   0.260913  -0.015101
      7      -0.059440  -0.002584   0.009432  -0.025110   0.000690  -0.031183
      8      -0.012859  -0.008751   0.002737   0.000035   0.043293  -0.004943
      9       0.084557   0.005246  -0.073980   0.036728  -0.117328   0.023035
     10       0.019170   0.031998   0.098167   0.028376  -0.216274   0.069394
     11       0.015949  -0.000519  -0.012361   0.009966  -0.032266   0.019433
     12       0.123152   0.009255  -0.004060  -0.020642  -0.187802   0.191445
     13       0.126428  -0.004869  -0.159674   0.082295   0.273925   0.079380
     14       0.031920   0.001841  -0.015106   0.004356  -0.009614   0.035816
     15      -0.011101   0.010601   0.025463  -0.134071   0.289296  -0.018926
     16      -0.008952  -0.019563  -0.280978  -0.103435  -0.054085  -0.025243
     17      -0.007289   0.001775  -0.005938  -0.026223   0.045484  -0.015258
     18       0.001470   0.000571  -0.002513   0.013492  -0.026370  -0.603492
     19      -0.010497   0.003528   0.017118  -0.002653  -0.033304  -0.321925
     20       0.011320  -0.001129  -0.005723   0.018608   0.017779  -0.125229
     21       0.028364  -0.004398  -0.020473   0.050824  -0.053793  -0.002574
     22       0.003239   0.008177   0.124641   0.031402   0.016396   0.038715
     23       0.007827  -0.001289  -0.000212   0.008636  -0.005561   0.009039
     24      -0.250538   0.129578   0.046980   0.358017   0.217164  -0.051538
     25      -0.515855   0.256180   0.024839   0.598168   0.424705  -0.028459
     26      -0.059105   0.033836   0.000401   0.088907   0.033639  -0.012151
     27      -0.214513   0.320707  -0.157582  -0.102072   0.106511  -0.085866
     28       0.408454  -0.509187   0.420747   0.243882  -0.129776   0.123903
     29      -0.016485   0.026356  -0.002783  -0.001599  -0.006577  -0.009890
     30      -0.557525  -0.623891   0.156049  -0.189682  -0.353887  -0.228849
     31      -0.078464  -0.016420   0.021758  -0.032662  -0.014998  -0.037824
     32      -0.096677  -0.111807   0.015077  -0.027281  -0.062639  -0.039596
     33       0.159828   0.161594   0.202329  -0.215910   0.036094  -0.095198
     34       0.136245   0.332324   0.655912  -0.460225   0.073735  -0.162661
     35       0.030130   0.067064   0.112438  -0.083803   0.014275  -0.074120
     36      -0.029282  -0.001033  -0.026737  -0.101322   0.082197   0.042604
     37       0.065548   0.013696   0.181218   0.171495  -0.048092  -0.045477
     38      -0.023901   0.006972   0.029391  -0.084888   0.122836   0.003383
     39      -0.045469   0.004785   0.001336  -0.170302   0.230361   0.074375
     40       0.043716   0.005782   0.164074   0.068154   0.062231  -0.048635
     41      -0.001675  -0.000724  -0.013133   0.004122  -0.030798   0.029428
     42      -0.001382   0.002959   0.009767  -0.003095   0.034207  -0.033763
     43      -0.081168   0.032578   0.272605  -0.036955   0.202267  -0.174691
     44       0.004028   0.000315   0.026407   0.044721  -0.038534  -0.078134
     45      -0.002426   0.000669   0.005032  -0.004598  -0.006430   0.075852
     46      -0.042311  -0.002248   0.016708  -0.013497   0.008670   0.262662
     47      -0.045837  -0.001695   0.019608  -0.017696   0.002347   0.252317
     48      -0.039912  -0.004173   0.012592  -0.001739   0.045070   0.343413
     49       0.015183   0.000034  -0.008299   0.003028   0.002825  -0.043460
     50       0.025300   0.002316  -0.007658  -0.000112  -0.023742  -0.164795
                 36         37         38         39         40         41    
      0      -0.003041   0.053416   0.043192   0.000968  -0.081699  -0.054796
      1      -0.009549  -0.026650  -0.014889   0.020362  -0.122448   0.053577
      2      -0.001542   0.006667   0.006710   0.000061  -0.018566  -0.003674
      3      -0.001483  -0.021099  -0.003930  -0.007304   0.095647   0.117928
      4       0.013850   0.097232   0.072103  -0.015911  -0.052047  -0.161845
      5       0.000388   0.001757   0.003284  -0.002192   0.012768   0.009437
      6       0.005780  -0.072734  -0.089183   0.016815  -0.007668  -0.067261
      7      -0.001002  -0.009690  -0.025355  -0.000886   0.098434   0.080891
      8       0.000761  -0.012673  -0.016757   0.002931   0.004693  -0.004103
      9      -0.008785   0.000697   0.038908   0.001667  -0.097630  -0.031556
     10      -0.004297  -0.097773  -0.034379   0.013797  -0.130286  -0.084328
     11      -0.001928  -0.005134   0.004283   0.000526  -0.024118  -0.010965
     12       0.006931   0.045021  -0.001606  -0.017072   0.149646  -0.001688
     13       0.001593   0.077657   0.066915  -0.006185  -0.040231   0.022273
     14       0.000762   0.014166   0.004863  -0.005394   0.021353  -0.014832
     15      -0.000420  -0.069290  -0.065709   0.021571  -0.087376   0.067960
     16      -0.020283  -0.020023  -0.052784  -0.000214   0.166488   0.014071
     17       0.002734  -0.013641  -0.009477   0.021431  -0.004881   0.012836
     18       0.011573  -0.031858   0.001954  -0.005116   0.012922  -0.301743
     19       0.003414   0.001447  -0.004725   0.002935  -0.017292   0.389004
     20      -0.001281   0.019858   0.008470   0.006232  -0.043905   0.474256
     21       0.001142   0.058190  -0.030964  -0.001482   0.009715  -0.025751
     22       0.136440  -0.017523   0.023464  -0.033547  -0.045412   0.008591
     23       0.021941   0.004287   0.013351   0.047965   0.012856  -0.010985
     24       0.018297   0.053109   0.047219  -0.043675   0.228950  -0.038160
     25       0.036185  -0.053097  -0.030308  -0.069081   0.512802   0.116981
     26       0.002537   0.011393   0.000725  -0.013633   0.057706   0.002147
     27       0.008011   0.225771   0.175951  -0.026344  -0.145264  -0.172344
     28      -0.001618  -0.290003  -0.208132   0.008497   0.367061   0.318599
     29       0.002708   0.019866   0.017455  -0.000594  -0.003704  -0.014167
     30       0.009908   0.417140   0.321357  -0.070158   0.096401   0.033584
     31      -0.000507   0.001331  -0.019009  -0.004052   0.122335   0.098814
     32       0.000549   0.071189   0.053890  -0.013670   0.019740   0.016307
     33       0.012711   0.176716   0.085001  -0.033155   0.216919   0.079676
     34       0.036170   0.210415   0.029156  -0.046860   0.469039   0.142200
     35       0.006169   0.041560   0.016279  -0.006088   0.075178   0.012714
     36       0.095181  -0.147595   0.011564  -0.458745  -0.090291   0.107851
     37      -0.480246  -0.061039   0.280649   0.265551   0.115602  -0.054974
     38      -0.343706  -0.310556   0.267544  -0.381383  -0.003280   0.115115
     39      -0.071920  -0.529434   0.588783   0.057628   0.134180   0.161468
     40      -0.593900   0.012770  -0.000263  -0.248498  -0.047740  -0.056474
     41       0.251886   0.018389  -0.008498   0.101685   0.007672   0.009822
     42      -0.080723   0.030729   0.052897   0.361185   0.075368  -0.042200
     43      -0.392016   0.292522  -0.331355   0.345774  -0.105995  -0.107023
     44      -0.192462   0.255305  -0.406289  -0.475412  -0.178912  -0.031333
     45      -0.001131   0.000486  -0.001796   0.000540   0.001535   0.008624
     46      -0.003895  -0.008166  -0.005524   0.000031   0.012634  -0.230000
     47      -0.003438  -0.010544  -0.006378  -0.001375   0.017417  -0.236560
     48      -0.008557   0.017494   0.001314   0.005992  -0.030837   0.243736
     49       0.001206  -0.002638   0.000924  -0.001481   0.006433  -0.089308
     50       0.004362  -0.010161  -0.002023  -0.003409   0.019553  -0.168885
                 42         43         44         45         46         47    
      0       0.177529   0.076586  -0.000845   0.002829  -0.000652   0.062748
      1       0.092497   0.312082   0.001243  -0.001462   0.000135  -0.030820
      2       0.034396   0.027314  -0.000084   0.000582   0.000133   0.008560
      3      -0.226451   0.086261  -0.000131  -0.000278  -0.000034  -0.037847
      4       0.089783  -0.294604  -0.000230  -0.000029   0.000148  -0.021540
      5      -0.031985  -0.002343  -0.000082   0.000023   0.000067  -0.007344
      6       0.373725   0.020698   0.000018   0.000160   0.000029   0.000195
      7      -0.003643   0.157338   0.000004  -0.000055   0.000076   0.016450
      8       0.062687   0.011673  -0.000004   0.000041   0.000064   0.000974
      9      -0.190628  -0.093336   0.000123  -0.000016   0.000032   0.005768
     10      -0.056323  -0.284130  -0.000216  -0.000256  -0.000007  -0.003481
     11      -0.034049  -0.032391  -0.000030  -0.000049   0.000092   0.000760
     12       0.176081  -0.074802  -0.000698  -0.000117   0.000100  -0.000253
     13      -0.086434   0.277844   0.000359  -0.000124  -0.000091   0.000613
     14       0.019373   0.014202  -0.000128  -0.000209  -0.000193   0.000032
     15      -0.274971   0.003015   0.000187  -0.000898  -0.000220  -0.001531
     16      -0.015119  -0.226211   0.000591  -0.000888   0.000741  -0.002035
     17      -0.048342  -0.013055   0.000140  -0.000195   0.000481  -0.000289
     18      -0.029898   0.062689  -0.000024   0.000209   0.000074  -0.000070
     19       0.060315  -0.077303  -0.000139  -0.000352   0.000182  -0.000166
     20       0.047843  -0.063969  -0.000224  -0.000425   0.000062  -0.000090
     21       0.019877  -0.003880   0.007034  -0.088301  -0.025521   0.002513
     22       0.002395   0.037004  -0.049689  -0.007285  -0.005042  -0.000550
     23       0.004875  -0.000061   0.001639  -0.025509   0.089442   0.001303
     24      -0.016303  -0.245040   0.013341  -0.028372   0.005838  -0.720684
     25      -0.320126  -0.315182  -0.008549   0.017179  -0.002831   0.372723
     26      -0.018684  -0.051698   0.002086  -0.004409   0.001095  -0.097707
     27      -0.018926  -0.286492  -0.000047   0.004402  -0.000517   0.441352
     28      -0.290162   0.290117  -0.000524   0.002730  -0.000338   0.272154
     29      -0.022791  -0.025283   0.000077   0.000840  -0.000098   0.086773
     30      -0.495130  -0.063669  -0.000147   0.000270   0.000040   0.006375
     31      -0.029536   0.176774   0.001146   0.000780  -0.001416  -0.201116
     32      -0.087157  -0.000223   0.000266   0.000024  -0.000040  -0.010510
     33      -0.092485   0.237230  -0.000273   0.000088  -0.000575  -0.071528
     34       0.170190   0.316938  -0.000400  -0.000180   0.000263   0.039740
     35      -0.006894   0.064029   0.000078   0.000074   0.000034  -0.009741
     36      -0.003101   0.028912   0.427685   0.395941   0.456283  -0.004378
     37       0.157914   0.017885   0.239215   0.237966   0.263618  -0.001303
     38       0.101842   0.034996  -0.293608  -0.293116  -0.300737   0.002746
     39       0.131344   0.006486   0.024347  -0.007917  -0.038545   0.000266
     40       0.057888   0.056379   0.161770   0.094606  -0.246924  -0.001076
     41      -0.017514  -0.013231   0.519674   0.288516  -0.738369  -0.005632
     42      -0.014531  -0.029228  -0.531812   0.668224  -0.114449  -0.027590
     43      -0.212347  -0.004129   0.176545  -0.234726   0.035810   0.011812
     44      -0.082610   0.025858  -0.245069   0.311690  -0.033435  -0.012746
     45       0.003250  -0.007839  -0.000070  -0.000115   0.000221   0.000001
     46      -0.030763   0.028606   0.000244   0.000381  -0.000104   0.000074
     47      -0.027273   0.025133   0.000089   0.000119  -0.000122   0.000023
     48       0.013591  -0.035798   0.000036  -0.000099   0.000022   0.000043
     49      -0.010056   0.020649   0.000004   0.000051  -0.000057   0.000066
     50      -0.011404   0.024693   0.000057   0.000130  -0.000053   0.000006
                  48         49         50    
      0       0.038063   0.019757  -0.009920
      1      -0.020700  -0.012262   0.006883
      2       0.005086   0.002565  -0.001247
      3       0.032223   0.044624  -0.029851
      4       0.023503   0.028124  -0.016195
      5       0.006553   0.008804  -0.005756
      6       0.001291  -0.004685   0.001608
      7      -0.054644   0.020830  -0.062723
      8      -0.002943   0.000398  -0.003408
      9      -0.025095   0.053290   0.047550
     10       0.015761  -0.030936  -0.023877
     11      -0.003365   0.007279   0.006704
     12      -0.000605   0.000057   0.000185
     13      -0.000535   0.002430   0.002552
     14      -0.000126   0.000213   0.000233
     15      -0.001097  -0.001410   0.000136
     16      -0.001382  -0.000700   0.000519
     17      -0.000225  -0.000271   0.000010
     18      -0.000262   0.000458   0.000538
     19       0.000117  -0.000397  -0.000247
     20       0.000079  -0.000237  -0.000138
     21       0.001256   0.000560  -0.000198
     22      -0.000304  -0.000176   0.000154
     23       0.000799   0.000221  -0.000042
     24      -0.430332  -0.223239   0.112033
     25       0.224860   0.118741  -0.060718
     26      -0.058258  -0.030145   0.015093
     27      -0.386613  -0.502739   0.313208
     28      -0.245252  -0.313941   0.192266
     29      -0.076514  -0.099101   0.061630
     30      -0.021436   0.012794  -0.024191
     31       0.641385  -0.238806   0.693455
     32       0.033585  -0.011605   0.036330
     33       0.306077  -0.619291  -0.518127
     34      -0.171175   0.343998   0.283269
     35       0.041475  -0.084120  -0.070774
     36      -0.001478  -0.000287  -0.000434
     37       0.000415   0.000552  -0.000643
     38       0.000639   0.000148   0.000240
     39      -0.000024   0.000230  -0.000103
     40      -0.000233   0.000497  -0.000620
     41      -0.003512   0.000210  -0.000912
     42      -0.013893  -0.005857   0.002883
     43       0.006331   0.002362  -0.001495
     44      -0.006485  -0.002701   0.001271
     45       0.000049  -0.000115  -0.000144
     46       0.000020   0.000025  -0.000055
     47       0.000013   0.000001  -0.000048
     48       0.000125  -0.000190  -0.000238
     49      -0.000119   0.000290   0.000202
     50      -0.000068   0.000107   0.000100


-----------
IR SPECTRUM
-----------

 Mode    freq (cm**-1)   T**2         TX         TY         TZ
-------------------------------------------------------------------
   6:        91.00    0.899660  ( -0.885574  -0.299296   0.160749)
   7:       137.36    1.472307  (  0.004499  -0.063781   1.211701)
   8:       158.67    0.222053  (  0.426640  -0.187852   0.068868)
   9:       220.70    3.817171  (  1.101395  -1.507434   0.575972)
  10:       232.40    0.488142  ( -0.214504  -0.104402  -0.656681)
  11:       339.00    1.855518  ( -0.963616  -0.927895  -0.256855)
  12:       390.10    0.727823  (  0.445643   0.720465  -0.100775)
  13:       427.79    0.272482  (  0.157779  -0.490251  -0.085102)
  14:       485.53    4.264170  (  0.583751   0.025248   1.980598)
  15:       551.62    0.537471  ( -0.724708  -0.076418  -0.080183)
  16:       587.78    0.526879  ( -0.537581  -0.341001   0.348717)
  17:       677.84   11.332205  (  2.964743   1.565666   0.301985)
  18:       717.77    2.265167  ( -1.421442  -0.396294  -0.296008)
  19:       754.43   39.263423  (  0.549442   1.038734  -6.154882)
  20:       803.58   15.189369  (  2.981278   0.648523  -2.425029)
  21:       808.89    5.955650  ( -0.785586  -1.180754  -1.986032)
  22:       863.34   17.588621  ( -3.553804  -1.996402  -0.986651)
  23:       890.51    0.996888  ( -0.827284  -0.555583  -0.061783)
  24:       968.66    1.105600  ( -0.642950  -0.383694   0.738236)
  25:      1002.60    0.209167  (  0.249248   0.316489   0.216511)
  26:      1015.12    0.085562  (  0.021889   0.266564  -0.118435)
  27:      1072.58    3.176649  (  0.213873  -1.352315  -1.141119)
  28:      1077.89    1.733032  (  0.905270   0.288376  -0.911240)
  29:      1121.06    2.606158  ( -0.961716   1.146240   0.606131)
  30:      1177.61    1.640825  ( -0.860237   0.922626   0.222662)
  31:      1196.98    1.009608  (  0.957615  -0.184132   0.242234)
  32:      1232.81    1.946851  (  1.268023   0.422944   0.400110)
  33:      1309.35    0.527276  (  0.062323  -0.550739   0.469125)
  34:      1339.01    6.987774  ( -2.066770   1.646609   0.070112)
  35:      1398.18  204.433365  (-12.330000  -6.758038  -2.594875)
  36:      1432.24    0.956281  (  0.433552  -0.739779  -0.470149)
  37:      1469.04   10.569443  ( -3.021994   0.188173   1.183886)
  38:      1501.06   12.875030  (  3.345152  -1.289160  -0.151850)
  39:      1512.00    5.076462  ( -0.960776   0.292012  -2.016953)
  40:      1520.12    8.769426  (  1.223978   2.006651  -1.801293)
  41:      1585.41  215.406156  ( -6.427964   7.737448  10.687344)
  42:      1631.64    7.503281  ( -2.424766   0.147855   1.265674)
  43:      1645.57   16.272826  (  0.492028  -3.309502  -2.253426)
  44:      3046.40   14.584649  (  1.143754  -3.533795   0.888129)
  45:      3110.52   14.568328  ( -3.708781   0.604357  -0.669345)
  46:      3129.27    6.957880  ( -0.832319  -0.818141   2.365538)
  47:      3164.11    3.500098  (  0.751521  -1.710464   0.098111)
  48:      3177.13    8.136235  (  2.411049  -1.498297   0.279612)
  49:      3186.15    8.494246  (  2.574050   1.224457   0.607634)
  50:      3197.26    9.749170  ( -1.236692  -2.854399  -0.268642)

The first frequency considered to be a vibration is 6
The total number of vibrations considered is 45


--------------------------
THERMOCHEMISTRY AT 298.15K
--------------------------

Temperature         ... 298.15 K
Pressure            ... 1.00 atm
Total Mass          ... 137.14 AMU

Throughout the following assumptions are being made:
  (1) The electronic state is orbitally nondegenerate
  (2) There are no thermally accessible electronically excited states
  (3) Hindered rotations indicated by low frequency modes are not
      treated as such but are treated as vibrations and this may
      cause some error
  (4) All equations used are the standard statistical mechanics
      equations for an ideal gas
  (5) All vibrations are strictly harmonic

freq.      91.00  E(vib)   ...       0.47 
freq.     137.36  E(vib)   ...       0.42 
freq.     158.67  E(vib)   ...       0.39 
freq.     220.70  E(vib)   ...       0.33 
freq.     232.40  E(vib)   ...       0.32 
freq.     339.00  E(vib)   ...       0.23 
freq.     390.10  E(vib)   ...       0.20 
freq.     427.79  E(vib)   ...       0.18 
freq.     485.53  E(vib)   ...       0.15 
freq.     551.62  E(vib)   ...       0.12 
freq.     587.78  E(vib)   ...       0.10 
freq.     677.84  E(vib)   ...       0.08 
freq.     717.77  E(vib)   ...       0.07 
freq.     754.43  E(vib)   ...       0.06 
freq.     803.58  E(vib)   ...       0.05 
freq.     808.89  E(vib)   ...       0.05 
freq.     863.34  E(vib)   ...       0.04 
freq.     890.51  E(vib)   ...       0.04 
freq.     968.66  E(vib)   ...       0.03 
freq.    1002.60  E(vib)   ...       0.02 
freq.    1015.12  E(vib)   ...       0.02 
freq.    1072.58  E(vib)   ...       0.02 
freq.    1077.89  E(vib)   ...       0.02 
freq.    1121.06  E(vib)   ...       0.01 
freq.    1177.61  E(vib)   ...       0.01 
freq.    1196.98  E(vib)   ...       0.01 
freq.    1232.81  E(vib)   ...       0.01 
freq.    1309.35  E(vib)   ...       0.01 
freq.    1339.01  E(vib)   ...       0.01 
freq.    1398.18  E(vib)   ...       0.00 
freq.    1432.24  E(vib)   ...       0.00 
freq.    1469.04  E(vib)   ...       0.00 
freq.    1501.06  E(vib)   ...       0.00 
freq.    1512.00  E(vib)   ...       0.00 
freq.    1520.12  E(vib)   ...       0.00 
freq.    1585.41  E(vib)   ...       0.00 
freq.    1631.64  E(vib)   ...       0.00 
freq.    1645.57  E(vib)   ...       0.00 
freq.    3046.40  E(vib)   ...       0.00 
freq.    3110.52  E(vib)   ...       0.00 
freq.    3129.27  E(vib)   ...       0.00 
freq.    3164.11  E(vib)   ...       0.00 
freq.    3177.13  E(vib)   ...       0.00 
freq.    3186.15  E(vib)   ...       0.00 
freq.    3197.26  E(vib)   ...       0.00 

------------
INNER ENERGY
------------

The inner energy is: U= E(el) + E(ZPE) + E(vib) + E(rot) + E(trans)
    E(el)   - is the total energy from the electronic structure calculation
              = E(kin-el) + E(nuc-el) + E(el-el) + E(nuc-nuc)
    E(ZPE)  - the the zero temperature vibrational energy from the frequency calculation
    E(vib)  - the the finite temperature correction to E(ZPE) due to population
              of excited vibrational states
    E(rot)  - is the rotational thermal energy
    E(trans)- is the translational thermal energy

Summary of contributions to the inner energy U:
Electronic energy                ...   -475.79535300 Eh
Zero point energy                ...      0.13067130 Eh      82.00 kcal/mol
Thermal vibrational correction   ...      0.00554852 Eh       3.48 kcal/mol
Thermal rotational correction    ...      0.00141627 Eh       0.89 kcal/mol
Thermal translational correction ...      0.00141627 Eh       0.89 kcal/mol
-----------------------------------------------------------------------
Total thermal energy                   -475.65630064 Eh


Summary of corrections to the electronic energy:
(perhaps to be used in another calculation)
Total thermal correction                  0.00838106 Eh       5.26 kcal/mol
Non-thermal (ZPE) correction              0.13067130 Eh      82.00 kcal/mol
-----------------------------------------------------------------------
Total correction                          0.13905236 Eh      87.26 kcal/mol


--------
ENTHALPY
--------

The enthalpy is H = U + kB*T
                kB is Boltzmann's constant
Total free energy                 ...   -475.65630064 Eh 
Thermal Enthalpy correction       ...      0.00094421 Eh       0.59 kcal/mol
-----------------------------------------------------------------------
Total Enthalpy                    ...   -475.65535643 Eh


Vibrational entropy computed according to the QRRHO of S. Grimme
Chem.Eur.J. 2012 18 9955


-------
ENTROPY
-------

The entropy contributions are T*S = T*(S(el)+S(vib)+S(rot)+S(trans)
     S(el)   - electronic entropy
     S(vib)  - vibrational entropy
     S(rot)  - rotational entropy
     S(trans)- translational entropy
The entropies will be listed as mutliplied by the temperature to get
units of energy

Electronic entropy                ...      0.00000000 Eh      0.00 kcal/mol
Vibrational entropy               ...      0.00926785 Eh      5.82 kcal/mol
Rotational entropy                ...      0.01289200 Eh      8.09 kcal/mol
Translational entropy             ...      0.01931853 Eh     12.12 kcal/mol
-----------------------------------------------------------------------
Final entropy term                ...      0.04147837 Eh     26.03 kcal/mol


CAUTION: The rotational entropy is not quite correctly treated here
         because it includes a symmetry number that is not yet correctly
         implemented in ORCA!
For a nonlinear molecule the correct rotational entropy is:
    S(rot) = R*(ln(qrot/sn)+1.5)
    R    = 8.31441 J/mol/K = 1.987191683e-3 kcal/mol/K
    qrot = 569646.0231375
    sn is the rotational symmetry number. We have assumed 3 here
       if it is different for your molecule then you should correct
       the printed rotational entropy by manually evaluating the equation
       as given above

For convenience we print out the resulting values for sn=1 - 12:
 sn= 1  qrot/sn=  569646.0231 T*S(rot)=     8.74 kcal/mol T*S(tot)=    26.68 kcal/mol
 sn= 2  qrot/sn=  284823.0116 T*S(rot)=     8.33 kcal/mol T*S(tot)=    26.27 kcal/mol
 sn= 3  qrot/sn=  189882.0077 T*S(rot)=     8.09 kcal/mol T*S(tot)=    26.03 kcal/mol
 sn= 4  qrot/sn=  142411.5058 T*S(rot)=     7.92 kcal/mol T*S(tot)=    25.86 kcal/mol
 sn= 5  qrot/sn=  113929.2046 T*S(rot)=     7.79 kcal/mol T*S(tot)=    25.73 kcal/mol
 sn= 6  qrot/sn=   94941.0039 T*S(rot)=     7.68 kcal/mol T*S(tot)=    25.62 kcal/mol
 sn= 7  qrot/sn=   81378.0033 T*S(rot)=     7.59 kcal/mol T*S(tot)=    25.53 kcal/mol
 sn= 8  qrot/sn=   71205.7529 T*S(rot)=     7.51 kcal/mol T*S(tot)=    25.45 kcal/mol
 sn= 9  qrot/sn=   63294.0026 T*S(rot)=     7.44 kcal/mol T*S(tot)=    25.38 kcal/mol
 sn=10  qrot/sn=   56964.6023 T*S(rot)=     7.38 kcal/mol T*S(tot)=    25.31 kcal/mol
 sn=11  qrot/sn=   51786.0021 T*S(rot)=     7.32 kcal/mol T*S(tot)=    25.26 kcal/mol
 sn=12  qrot/sn=   47470.5019 T*S(rot)=     7.27 kcal/mol T*S(tot)=    25.21 kcal/mol


-------------------
GIBBS FREE ENTHALPY
-------------------

The Gibbs free enthalpy is G = H - T*S

Total enthalpy                    ...   -475.65535643 Eh 
Total entropy correction          ...     -0.04147837 Eh    -26.03 kcal/mol
-----------------------------------------------------------------------
Final Gibbs free enthalpy         ...   -475.69683481 Eh

For completeness - the Gibbs free enthalpy minus the electronic energy
G-E(el)                           ...      0.09851820 Eh     61.82 kcal/mol


Timings for individual modules:

Sum of individual times         ...     5259.594 sec (=  87.660 min)
GTO integral calculation        ...        0.579 sec (=   0.010 min)   0.0 %
SCF iterations                  ...      128.274 sec (=   2.138 min)   2.4 %
Analytical frequency calculation...     5130.741 sec (=  85.512 min)  97.6 %
                             ****ORCA TERMINATED NORMALLY****
TOTAL RUN TIME: 0 days 1 hours 27 minutes 40 seconds 332 msec
