10
	Energy:      -5.7146110
C         -4.71356       -0.41881        0.01953
C         -3.79629        0.79000       -0.05483
H         -5.69760       -0.12284        0.39694
H         -4.30971       -1.18217        0.69306
H         -4.85333       -0.87182       -0.96774
N         -2.47798        0.42077       -0.55533
H         -3.69182        1.23942        0.93801
H         -4.23239        1.54802       -0.71349
H         -2.57009       -0.00971       -1.47488
H         -2.07181       -0.29415        0.04739
