
                                 *****************
                                 * O   R   C   A *
                                 *****************

           --- An Ab Initio, DFT and Semiempirical electronic structure package ---

                  #######################################################
                  #                        -***-                        #
                  #  Department of molecular theory and spectroscopy    #
                  #              Directorship: Frank Neese              #
                  # Max Planck Institute for Chemical Energy Conversion #
                  #                  D-45470 Muelheim/Ruhr              #
                  #                       Germany                       #
                  #                                                     #
                  #                  All rights reserved                #
                  #                        -***-                        #
                  #######################################################


                         Program Version 4.0.1 -  RELEASE  -


 With contributions from (in alphabetic order):
   Daniel Aravena         : Magnetic Properties
   Michael Atanasov       : Ab Initio Ligand Field Theory
   Ute Becker             : Parallelization
   Martin Brehm           : Molecular dynamics
   Dmytro Bykov           : SCF Hessian
   Vijay G. Chilkuri      : MRCI spin determinant printing
   Dipayan Datta          : RHF DLPNO-CCSD density
   Achintya Kumar Dutta   : EOM-CC, STEOM-CC
   Dmitry Ganyushin       : Spin-Orbit,Spin-Spin,Magnetic field MRCI
   Yang Guo               : DLPNO-NEVPT2, CIM, IAO-localization
   Andreas Hansen         : Spin unrestricted coupled pair/coupled cluster methods
   Lee Huntington         : MR-EOM, pCC
   Robert Izsak           : Overlap fitted RIJCOSX, COSX-SCS-MP3, EOM
   Christian Kollmar      : KDIIS, OOCD, Brueckner-CCSD(T), CCSD density
   Simone Kossmann        : Meta GGA functionals, TD-DFT gradient, OOMP2, MP2 Hessian
   Martin Krupicka        : AUTO-CI
   Dagmar Lenk            : GEPOL surface
   Dimitrios Liakos       : Extrapolation schemes; parallel MDCI
   Dimitrios Manganas     : ROCIS; embedding schemes
   Dimitrios Pantazis     : SARC Basis sets
   Taras Petrenko         : DFT Hessian,TD-DFT gradient, ASA, ECA, R-Raman, ABS, FL, XAS/XES, NRVS
   Peter Pinski           : DLPNO-MP2
   Christoph Reimann      : Effective Core Potentials
   Marius Retegan         : Local ZFS, SOC
   Christoph Riplinger    : Optimizer, TS searches, QM/MM, DLPNO-CCSD(T), (RO)-DLPNO pert. Triples
   Tobias Risthaus        : Range-separated hybrids, TD-DFT gradient, RPA, STAB
   Michael Roemelt        : Restricted open shell CIS
   Masaaki Saitow         : Open-shell DLPNO
   Barbara Sandhoefer     : DKH picture change effects
   Kantharuban Sivalingam : CASSCF convergence, NEVPT2, FIC-MRCI
   Georgi Stoychev        : AutoAux
   Boris Wezisla          : Elementary symmetry handling
   Frank Wennmohs         : Technical directorship


 We gratefully acknowledge several colleagues who have allowed us to
 interface, adapt or use parts of their codes:
   Stefan Grimme, W. Hujo, H. Kruse,             : VdW corrections, initial TS optimization,
                  C. Bannwarth                     DFT functionals, gCP, sTDA/sTD-DF
   Ed Valeev                                     : LibInt (2-el integral package), F12 methods
   Garnet Chan, S. Sharma, J. Yang, R. Olivares  : DMRG
   Ulf Ekstrom                                   : XCFun DFT Library
   Mihaly Kallay                                 : mrcc  (arbitrary order and MRCC methods)
   Andreas Klamt, Michael Diedenhofen            : otool_cosmo (COSMO solvation model)
   Jiri Pittner, Ondrej Demel                    : Mk-CCSD
   Frank Weinhold                                : gennbo (NPA and NBO analysis)
   Christopher J. Cramer and Donald G. Truhlar   : smd solvation model


 Your calculation uses the libint2 library for the computation of 2-el integrals
 For citations please refer to: http://libint.valeyev.net

 This ORCA versions uses:
   CBLAS   interface :  Fast vector & matrix operations
   LAPACKE interface :  Fast linear algebra routines
   SCALAPACK package :  Parallel linear algebra routines




*****************************************
The coordinations will be read from file: etanamina.xyz
*****************************************


Your calculation utilizes the basis: 6-31G(d,p)
   H-He, Li-Ne : W. J. Hehre, R. Ditchfield and J.A. Pople, J. Chem. Phys. 56, 2257 (1972).
                 Note: He and Ne are unpublished basis sets taken from the Gaussian program.
                 Note: Li and B from J. D. Dill and J. A. Pople, J. Chem. Phys. 62, 2921 (1975).
   Na - Ar     : M. M. Francl, W. J. Pietro, W. J. Hehre, J. S. Binkley, M. S. Gordon, 
                 D. J. DeFrees and J. A. Pople, J. Chem. Phys. 77, 3654 (1982).
   K - Zn      : V. A. Rassolov, J. A. Pople, M. A. Ratner, and T. L. Windus, J. Chem. Phys. 109, 1223 (1998).

================================================================================
                                        WARNINGS
                       Please study these warnings very carefully!
================================================================================

WARNING: Gradients needed for Numerical Frequencies
  ===> : Setting RunTyp to EnGrad
Warning: TCutStore was < 0. Adjusted to Thresh (uncritical)

WARNING: Evaluation of Numerical Hessian with CPCM may lead to unreliable numbers

INFO   : the flag for use of LIBINT has been found!

================================================================================
                                       INPUT FILE
================================================================================
NAME = etanamina.inp
|  1> ! B3LYP 6-31G(d,p) CPCM(water) NumFreq
|  2> 
|  3> * xyzfile 0 1 etanamina.xyz
|  4> 
|  5>                          ****END OF INPUT****
================================================================================

                     *******************************
                     * Energy+Gradient Calculation *
                     *******************************

---------------------------------
CARTESIAN COORDINATES (ANGSTROEM)
---------------------------------
  C     -4.713560   -0.418810    0.019530
  C     -3.796290    0.790000   -0.054830
  H     -5.697600   -0.122840    0.396940
  H     -4.309710   -1.182170    0.693060
  H     -4.853330   -0.871820   -0.967740
  N     -2.477980    0.420770   -0.555330
  H     -3.691820    1.239420    0.938010
  H     -4.232390    1.548020   -0.713490
  H     -2.570090   -0.009710   -1.474880
  H     -2.071810   -0.294150    0.047390

----------------------------
CARTESIAN COORDINATES (A.U.)
----------------------------
  NO LB      ZA    FRAG     MASS         X           Y           Z
   0 C     6.0000    0    12.011   -8.907338   -0.791436    0.036906
   1 C     6.0000    0    12.011   -7.173948    1.492884   -0.103614
   2 H     1.0000    0     1.008  -10.766904   -0.232134    0.750108
   3 H     1.0000    0     1.008   -8.144172   -2.233978    1.309694
   4 H     1.0000    0     1.008   -9.171465   -1.647501   -1.828764
   5 N     7.0000    0    14.007   -4.682704    0.795140   -1.049422
   6 H     1.0000    0     1.008   -6.976529    2.342164    1.772582
   7 H     1.0000    0     1.008   -7.998058    2.925334   -1.348301
   8 H     1.0000    0     1.008   -4.856766   -0.018349   -2.787119
   9 H     1.0000    0     1.008   -3.915154   -0.555863    0.089554

--------------------------------
INTERNAL COORDINATES (ANGSTROEM)
--------------------------------
 C      0   0   0     0.000000000000     0.00000000     0.00000000
 C      1   0   0     1.519254843204     0.00000000     0.00000000
 H      1   2   0     1.094701452726   110.15034594     0.00000000
 H      1   2   3     1.095196773644   111.22587225   240.37265077
 H      1   2   3     1.095196679095   111.22569117   119.62751207
 N      2   1   3     1.457659870820   111.18047390   179.99938863
 H      2   1   3     1.094816689177   109.86731838    58.98552237
 H      2   1   3     1.094810726107   109.86727226   301.01371723
 H      6   2   1     1.019494720438   109.56908968    57.86105775
 H      6   2   1     1.019488142991   109.56984113   302.13826451

---------------------------
INTERNAL COORDINATES (A.U.)
---------------------------
 C      0   0   0     0.000000000000     0.00000000     0.00000000
 C      1   0   0     2.870975581290     0.00000000     0.00000000
 H      1   2   0     2.068685944058   110.15034594     0.00000000
 H      1   2   3     2.069621964941   111.22587225   240.37265077
 H      1   2   3     2.069621786269   111.22569117   119.62751207
 N      2   1   3     2.754577952257   111.18047390   179.99938863
 H      2   1   3     2.068903709390   109.86731838    58.98552237
 H      2   1   3     2.068892440823   109.86727226   301.01371723
 H      6   2   1     1.926565816606   109.56908968    57.86105775
 H      6   2   1     1.926553387034   109.56984113   302.13826451

---------------------
BASIS SET INFORMATION
---------------------
There are 3 groups of distinct atoms

 Group   1 Type C   : 10s4p1d contracted to 3s2p1d pattern {631/31/1}
 Group   2 Type H   : 4s1p contracted to 2s1p pattern {31/1}
 Group   3 Type N   : 10s4p1d contracted to 3s2p1d pattern {631/31/1}

Atom   0C    basis set group =>   1
Atom   1C    basis set group =>   1
Atom   2H    basis set group =>   2
Atom   3H    basis set group =>   2
Atom   4H    basis set group =>   2
Atom   5N    basis set group =>   3
Atom   6H    basis set group =>   2
Atom   7H    basis set group =>   2
Atom   8H    basis set group =>   2
Atom   9H    basis set group =>   2
------------------------------------------------------------------------------
                           ORCA GTO INTEGRAL CALCULATION
------------------------------------------------------------------------------

                         BASIS SET STATISTICS AND STARTUP INFO

 # of primitive gaussian shells          ...   80
 # of primitive gaussian functions       ...  130
 # of contracted shells                  ...   39
 # of contracted basis functions         ...   77
 Highest angular momentum                ...    2
 Maximum contraction depth               ...    6
 Integral package used                   ... LIBINT
 Integral threshhold            Thresh   ...  2.500e-11
 Primitive cut-off              TCut     ...  2.500e-12


------------------------------ INTEGRAL EVALUATION ----------------------------


 * One electron integrals 
 Pre-screening matrix                    ... done
 Shell pair data                         ... done (   0.001 sec)

-------------------------------------------------------------------------------
                                 ORCA SCF
-------------------------------------------------------------------------------

------------
SCF SETTINGS
------------
Hamiltonian:
 Density Functional     Method          .... DFT(GTOs)
 Exchange Functional    Exchange        .... B88
   X-Alpha parameter    XAlpha          ....  0.666667
   Becke's b parameter  XBeta           ....  0.004200
 Correlation Functional Correlation     .... LYP
 LDA part of GGA corr.  LDAOpt          .... VWN-5
 Gradients option       PostSCFGGA      .... off
 Hybrid DFT is turned on
   Fraction HF Exchange ScalHFX         ....  0.200000
   Scaling of DF-GGA-X  ScalDFX         ....  0.720000
   Scaling of DF-GGA-C  ScalDFC         ....  0.810000
   Scaling of DF-LDA-C  ScalLDAC        ....  1.000000
   Perturbative correction              ....  0.000000
   NL short-range parameter             ....  4.800000


General Settings:
 Integral files         IntName         .... etanamina
 Hartree-Fock type      HFTyp           .... RHF
 Total Charge           Charge          ....    0
 Multiplicity           Mult            ....    1
 Number of Electrons    NEL             ....   26
 Basis Dimension        Dim             ....   77
 Nuclear Repulsion      ENuc            ....     83.3803223458 Eh

Convergence Acceleration:
 DIIS                   CNVDIIS         .... on
   Start iteration      DIISMaxIt       ....    12
   Startup error        DIISStart       ....  0.200000
   # of expansion vecs  DIISMaxEq       ....     5
   Bias factor          DIISBfac        ....   1.050
   Max. coefficient     DIISMaxC        ....  10.000
 Newton-Raphson         CNVNR           .... off
 SOSCF                  CNVSOSCF        .... on
   Start iteration      SOSCFMaxIt      ....   150
   Startup grad/error   SOSCFStart      ....  0.003300
 Level Shifting         CNVShift        .... on
   Level shift para.    LevelShift      ....    0.2500
   Turn off err/grad.   ShiftErr        ....    0.0010
 Zerner damping         CNVZerner       .... off
 Static damping         CNVDamp         .... on
   Fraction old density DampFac         ....    0.7000
   Max. Damping (<1)    DampMax         ....    0.9800
   Min. Damping (>=0)   DampMin         ....    0.0000
   Turn off err/grad.   DampErr         ....    0.1000
 Fernandez-Rico         CNVRico         .... off

SCF Procedure:
 Maximum # iterations   MaxIter         ....   125
 SCF integral mode      SCFMode         .... Direct
   Integral package                     .... LIBINT
 Reset frequeny         DirectResetFreq ....    20
 Integral Threshold     Thresh          ....  2.500e-11 Eh
 Primitive CutOff       TCut            ....  2.500e-12 Eh

Convergence Tolerance:
 Convergence Check Mode ConvCheckMode   .... Total+1el-Energy
 Convergence forced     ConvForced      .... 0
 Energy Change          TolE            ....  1.000e-08 Eh
 1-El. energy change                    ....  1.000e-05 Eh
 Orbital Gradient       TolG            ....  1.000e-05
 Orbital Rotation angle TolX            ....  1.000e-05
 DIIS Error             TolErr          ....  5.000e-07


Diagonalization of the overlap matrix:
Smallest eigenvalue                        ... 6.496e-03
Time for diagonalization                   ...    0.003 sec
Threshold for overlap eigenvalues          ... 1.000e-08
Number of eigenvalues below threshold      ... 0
Time for construction of square roots      ...    0.001 sec
Total time needed                          ...    0.004 sec

-------------------
DFT GRID GENERATION
-------------------

General Integration Accuracy     IntAcc      ...  4.340
Radial Grid Type                 RadialGrid  ... Gauss-Chebyshev
Angular Grid (max. acc.)         AngularGrid ... Lebedev-110
Angular grid pruning method      GridPruning ... 3 (G Style)
Weight generation scheme         WeightScheme... Becke
Basis function cutoff            BFCut       ...    1.0000e-11
Integration weight cutoff        WCut        ...    1.0000e-14
Grids for H and He will be reduced by one unit

# of grid points (after initial pruning)     ...  10572 (   0.0 sec)
# of grid points (after weights+screening)   ...  10066 (   0.0 sec)
nearest neighbour list constructed           ...    0.0 sec
Grid point re-assignment to atoms done       ...    0.0 sec
Grid point division into batches done        ...    0.0 sec
Reduced shell lists constructed in    0.1 sec

Total number of grid points                  ...    10066
Total number of batches                      ...      164
Average number of points per batch           ...       61
Average number of grid points per atom       ...     1007
Average number of shells per batch           ...    33.09 (84.85%)
Average number of basis functions per batch  ...    65.01 (84.42%)
Average number of large shells per batch     ...    27.71 (83.74%)
Average number of large basis fcns per batch ...    53.98 (83.03%)
Maximum spatial batch extension              ...  22.44, 25.60, 19.36 au
Average spatial batch extension              ...   4.08,  4.27,  3.64 au

Time for grid setup =    0.176 sec

------------------------------
INITIAL GUESS: MODEL POTENTIAL
------------------------------
Loading Hartree-Fock densities                     ... done
Calculating cut-offs                               ... done
Setting up the integral package                    ... done
Initializing the effective Hamiltonian             ... done
Starting the Coulomb interaction                   ... done (   0.1 sec)
Reading the grid                                   ... done
Mapping shells                                     ... done
Starting the XC term evaluation                    ... done (   0.2 sec)
  promolecular density results
     # of electrons  =     25.995300983
     EX              =    -18.928669945
     EC              =     -0.825270081
     EX+EC           =    -19.753940026
Transforming the Hamiltonian                       ... done (   0.0 sec)
Diagonalizing the Hamiltonian                      ... done (   0.0 sec)
Back transforming the eigenvectors                 ... done (   0.0 sec)
Now organizing SCF variables                       ... done
                      ------------------
                      INITIAL GUESS DONE (   0.6 sec)
                      ------------------

------------------------------------------------------------------------------
                           CPCM SOLVATION MODEL                               
------------------------------------------------------------------------------
CPCM parameters:
  Epsilon                                         ...      80.4000
  Refrac                                          ...       1.3300
  Rsolv                                           ...       1.3000
  Surface type                                    ...    GEPOL SES
  Epsilon function type                           ...         CPCM
Radii:
 Radius for C  used is    3.7795 Bohr (=   2.0000 Ang.)
 Radius for H  used is    2.4566 Bohr (=   1.3000 Ang.)
 Radius for N  used is    3.4582 Bohr (=   1.8300 Ang.)
Calculating surface                               ...        done! (  0.1s)
GEPOL surface points                              ...          341
GEPOL Volume                                      ...     496.9157
GEPOL Surface-area                                ...     332.4659
Calculating surface distance matrix               ...        done! (  0.0s)
Performing Cholesky decomposition & store         ...        done! (  0.0s)
Overall time for CPCM initialization              ...                 0.1s
--------------
SCF ITERATIONS
--------------
ITER       Energy         Delta-E        Max-DP      RMS-DP      [F,P]     Damp
               ***  Starting incremental Fock matrix formation  ***
  0   -134.9300848234   0.000000000000 0.08727874  0.00356549  0.2548813 0.7000
  1   -135.0062040592  -0.076119235816 0.05431007  0.00254878  0.1191041 0.7000
                               ***Turning on DIIS***
  2   -135.0361648107  -0.029960751432 0.07253476  0.00414389  0.0379170 0.0000
  3   -135.0792021671  -0.043037356440 0.03605349  0.00163611  0.0671928 0.0000
  4   -135.0911392908  -0.011937123703 0.01007038  0.00047962  0.0131504 0.0000
  5   -135.0917344992  -0.000595208401 0.00325207  0.00017596  0.0052022 0.0000
                      *** Initiating the SOSCF procedure ***
                           *** Shutting down DIIS ***
                      *** Re-Reading the Fockian *** 
                      *** Removing any level shift *** 
ITER      Energy       Delta-E        Grad      Rot      Max-DP    RMS-DP
  6   -135.09178587  -0.0000513749  0.000340  0.000340  0.002025  0.000094
               *** Restarting incremental Fock matrix formation ***
  7   -135.09179013  -0.0000042522  0.000067  0.000099  0.000249  0.000012
  8   -135.09179011   0.0000000199  0.000079  0.000063  0.000130  0.000006
  9   -135.09179023  -0.0000001261  0.000004  0.000011  0.000019  0.000001
 10   -135.09179023   0.0000000000  0.000006  0.000003  0.000009  0.000000
                 **** Energy Check signals convergence ****
              ***Rediagonalizing the Fockian in SOSCF/NRSCF***

               *****************************************************
               *                     SUCCESS                       *
               *           SCF CONVERGED AFTER  11 CYCLES          *
               *****************************************************

Setting up the final grid:

General Integration Accuracy     IntAcc      ...  4.670
Radial Grid Type                 RadialGrid  ... Gauss-Chebyshev
Angular Grid (max. acc.)         AngularGrid ... Lebedev-302
Angular grid pruning method      GridPruning ... 3 (G Style)
Weight generation scheme         WeightScheme... Becke
Basis function cutoff            BFCut       ...    1.0000e-11
Integration weight cutoff        WCut        ...    1.0000e-14
Grids for H and He will be reduced by one unit

# of grid points (after initial pruning)     ...  42394 (   0.0 sec)
# of grid points (after weights+screening)   ...  39902 (   0.2 sec)
nearest neighbour list constructed           ...    0.0 sec
Grid point re-assignment to atoms done       ...    0.0 sec
Grid point division into batches done        ...    0.3 sec
Reduced shell lists constructed in    0.8 sec

Total number of grid points                  ...    39902
Total number of batches                      ...      630
Average number of points per batch           ...       63
Average number of grid points per atom       ...     3990
Average number of shells per batch           ...    30.45 (78.06%)
Average number of basis functions per batch  ...    59.69 (77.52%)
Average number of large shells per batch     ...    25.02 (82.19%)
Average number of large basis fcns per batch ...    48.31 (80.93%)
Maximum spatial batch extension              ...  18.76, 17.32, 20.92 au
Average spatial batch extension              ...   2.74,  2.73,  2.72 au

Final grid set up in    1.0 sec
Final integration                            ... done (   0.9 sec)
Change in XC energy                          ...     0.000084888
Integrated number of electrons               ...    25.999896711
Previous integrated no of electrons          ...    26.000037027

----------------
TOTAL SCF ENERGY
----------------

Total Energy       :         -135.09170534 Eh           -3676.03219 eV

Components:
Nuclear Repulsion  :           83.38032235 Eh            2268.89392 eV
Electronic Energy  :         -218.47202769 Eh           -5944.92611 eV
One Electron Energy:         -346.22530837 Eh           -9421.26961 eV
Two Electron Energy:          127.75328068 Eh            3476.34350 eV
CPCM Dielectric    :           -0.00771631 Eh              -0.20997 eV

Virial components:
Potential Energy   :         -269.31491354 Eh           -7328.43137 eV
Kinetic Energy     :          134.22320820 Eh            3652.39918 eV
Virial Ratio       :            2.00647054


DFT components:
N(Alpha)           :       12.999948355642 electrons
N(Beta)            :       12.999948355642 electrons
N(Total)           :       25.999896711284 electrons
E(X)               :      -15.453222132524 Eh       
E(C)               :       -0.984388489655 Eh       
E(XC)              :      -16.437610622180 Eh       
CPCM Solvation Model Properties:
Surface-charge          :           -0.01861464
Charge-correction       :           -0.00020136 Eh              -0.00548 eV
Free-energy (cav+disp)  :            0.00310867 Eh               0.08459 eV
Corrected G(solv)       :         -135.08879803 Eh           -3675.95308 eV

---------------
SCF CONVERGENCE
---------------

  Last Energy change         ...   -2.6614e-10  Tolerance :   1.0000e-08
  Last MAX-Density change    ...    6.5973e-07  Tolerance :   1.0000e-07
  Last RMS-Density change    ...    4.4333e-08  Tolerance :   5.0000e-09
  Last Orbital Gradient      ...    3.4593e-07  Tolerance :   1.0000e-05
  Last Orbital Rotation      ...    3.0089e-07  Tolerance :   1.0000e-05

             **** THE GBW FILE WAS UPDATED (etanamina.gbw) ****
             **** DENSITY FILE WAS UPDATED (etanamina.scfp.tmp) ****
             **** ENERGY FILE WAS UPDATED (etanamina.en.tmp) ****
----------------
ORBITAL ENERGIES
----------------

  NO   OCC          E(Eh)            E(eV) 
   0   2.0000     -14.295050      -388.9881 
   1   2.0000     -10.189445      -277.2689 
   2   2.0000     -10.155289      -276.3395 
   3   2.0000      -0.868433       -23.6313 
   4   2.0000      -0.713170       -19.4063 
   5   2.0000      -0.596590       -16.2341 
   6   2.0000      -0.483986       -13.1699 
   7   2.0000      -0.426024       -11.5927 
   8   2.0000      -0.396086       -10.7780 
   9   2.0000      -0.391296       -10.6477 
  10   2.0000      -0.350494        -9.5374 
  11   2.0000      -0.328425        -8.9369 
  12   2.0000      -0.225233        -6.1289 
  13   0.0000       0.097294         2.6475 
  14   0.0000       0.147411         4.0112 
  15   0.0000       0.148196         4.0326 
  16   0.0000       0.164717         4.4822 
  17   0.0000       0.184754         5.0274 
  18   0.0000       0.202413         5.5079 
  19   0.0000       0.208995         5.6870 
  20   0.0000       0.246291         6.7019 
  21   0.0000       0.275251         7.4900 
  22   0.0000       0.536949        14.6111 
  23   0.0000       0.562340        15.3020 
  24   0.0000       0.562457        15.3052 
  25   0.0000       0.589754        16.0480 
  26   0.0000       0.638671        17.3791 
  27   0.0000       0.672043        18.2872 
  28   0.0000       0.733689        19.9647 
  29   0.0000       0.781302        21.2603 
  30   0.0000       0.825890        22.4736 
  31   0.0000       0.870844        23.6969 
  32   0.0000       0.886092        24.1118 
  33   0.0000       0.901114        24.5206 
  34   0.0000       0.904223        24.6052 
  35   0.0000       0.943162        25.6647 
  36   0.0000       0.973512        26.4906 
  37   0.0000       0.976966        26.5846 
  38   0.0000       1.044086        28.4110 
  39   0.0000       1.311454        35.6865 
  40   0.0000       1.345391        36.6099 
  41   0.0000       1.430519        38.9264 
  42   0.0000       1.487569        40.4788 
  43   0.0000       1.596163        43.4338 
  44   0.0000       1.681104        45.7452 
  45   0.0000       1.735221        47.2178 
  46   0.0000       1.873681        50.9854 
  47   0.0000       1.946884        52.9774 
  48   0.0000       1.978447        53.8363 
  49   0.0000       2.060487        56.0687 
  50   0.0000       2.070298        56.3357 
  51   0.0000       2.072550        56.3969 
  52   0.0000       2.096892        57.0593 
  53   0.0000       2.157373        58.7051 
  54   0.0000       2.239707        60.9455 
  55   0.0000       2.273112        61.8545 
  56   0.0000       2.293922        62.4208 
  57   0.0000       2.305344        62.7316 
  58   0.0000       2.373884        64.5967 
  59   0.0000       2.435010        66.2600 
  60   0.0000       2.500282        68.0361 
  61   0.0000       2.576068        70.0984 
  62   0.0000       2.682257        72.9879 
  63   0.0000       2.710093        73.7454 
  64   0.0000       2.745700        74.7143 
  65   0.0000       2.824682        76.8635 
  66   0.0000       2.841924        77.3327 
  67   0.0000       2.937425        79.9314 
  68   0.0000       2.950169        80.2782 
  69   0.0000       2.993474        81.4566 
  70   0.0000       3.197198        87.0002 
  71   0.0000       3.306244        89.9675 
  72   0.0000       3.334608        90.7393 
  73   0.0000       3.341834        90.9359 
  74   0.0000       3.488335        94.9224 
  75   0.0000       3.510030        95.5128 
  76   0.0000       3.596617        97.8689 

                    ********************************
                    * MULLIKEN POPULATION ANALYSIS *
                    ********************************

-----------------------
MULLIKEN ATOMIC CHARGES
-----------------------
   0 C :   -0.322123
   1 C :   -0.062931
   2 H :    0.093494
   3 H :    0.106585
   4 H :    0.104050
   5 N :   -0.638302
   6 H :    0.104180
   7 H :    0.106314
   8 H :    0.254098
   9 H :    0.254636
Sum of atomic charges:   -0.0000000

--------------------------------
MULLIKEN REDUCED ORBITAL CHARGES
--------------------------------
  0 C s       :     3.240375  s :     3.240375
      pz      :     1.042998  p :     3.050150
      px      :     1.014698
      py      :     0.992453
      dz2     :     0.005513  d :     0.031598
      dxz     :     0.004088
      dyz     :     0.009116
      dx2y2   :     0.006153
      dxy     :     0.006727
  1 C s       :     3.180442  s :     3.180442
      pz      :     1.028195  p :     2.828996
      px      :     0.837756
      py      :     0.963046
      dz2     :     0.008596  d :     0.053494
      dxz     :     0.008378
      dyz     :     0.010579
      dx2y2   :     0.011280
      dxy     :     0.014661
  2 H s       :     0.895141  s :     0.895141
      pz      :     0.002872  p :     0.011365
      px      :     0.005932
      py      :     0.002561
  3 H s       :     0.882136  s :     0.882136
      pz      :     0.004004  p :     0.011279
      px      :     0.002839
      py      :     0.004437
  4 H s       :     0.884649  s :     0.884649
      pz      :     0.005865  p :     0.011301
      px      :     0.002408
      py      :     0.003028
  5 N s       :     3.582859  s :     3.582859
      pz      :     1.160255  p :     4.026800
      px      :     1.346056
      py      :     1.520489
      dz2     :     0.003854  d :     0.028643
      dxz     :     0.004189
      dyz     :     0.009993
      dx2y2   :     0.006860
      dxy     :     0.003747
  6 H s       :     0.885064  s :     0.885064
      pz      :     0.006040  p :     0.010756
      px      :     0.001635
      py      :     0.003080
  7 H s       :     0.882946  s :     0.882946
      pz      :     0.003735  p :     0.010740
      px      :     0.002498
      py      :     0.004507
  8 H s       :     0.722708  s :     0.722708
      pz      :     0.011052  p :     0.023194
      px      :     0.004992
      py      :     0.007150
  9 H s       :     0.722170  s :     0.722170
      pz      :     0.007063  p :     0.023195
      px      :     0.006853
      py      :     0.009278


                     *******************************
                     * LOEWDIN POPULATION ANALYSIS *
                     *******************************

----------------------
LOEWDIN ATOMIC CHARGES
----------------------
   0 C :   -0.218387
   1 C :   -0.071805
   2 H :    0.066445
   3 H :    0.068571
   4 H :    0.067936
   5 N :   -0.306581
   6 H :    0.065943
   7 H :    0.066375
   8 H :    0.130681
   9 H :    0.130823

-------------------------------
LOEWDIN REDUCED ORBITAL CHARGES
-------------------------------
  0 C s       :     2.925694  s :     2.925694
      pz      :     1.090406  p :     3.227739
      px      :     1.071662
      py      :     1.065672
      dz2     :     0.011410  d :     0.064953
      dxz     :     0.007852
      dyz     :     0.017615
      dx2y2   :     0.012485
      dxy     :     0.015591
  1 C s       :     2.883640  s :     2.883640
      pz      :     1.070477  p :     3.072731
      px      :     0.956305
      py      :     1.045949
      dz2     :     0.018017  d :     0.115434
      dxz     :     0.017214
      dyz     :     0.020731
      dx2y2   :     0.023951
      dxy     :     0.035522
  2 H s       :     0.894846  s :     0.894846
      pz      :     0.008905  p :     0.038709
      px      :     0.021798
      py      :     0.008006
  3 H s       :     0.892897  s :     0.892897
      pz      :     0.013564  p :     0.038532
      px      :     0.009070
      py      :     0.015898
  4 H s       :     0.893542  s :     0.893542
      pz      :     0.021416  p :     0.038523
      px      :     0.007044
      py      :     0.010063
  5 N s       :     3.199236  s :     3.199236
      pz      :     1.177054  p :     4.051478
      px      :     1.364214
      py      :     1.510210
      dz2     :     0.009627  d :     0.055868
      dxz     :     0.010305
      dyz     :     0.016029
      dx2y2   :     0.012019
      dxy     :     0.007887
  6 H s       :     0.896782  s :     0.896782
      pz      :     0.021945  p :     0.037275
      px      :     0.005409
      py      :     0.009922
  7 H s       :     0.896334  s :     0.896334
      pz      :     0.013153  p :     0.037291
      px      :     0.008341
      py      :     0.015798
  8 H s       :     0.791242  s :     0.791242
      pz      :     0.038636  p :     0.078078
      px      :     0.015723
      py      :     0.023718
  9 H s       :     0.791104  s :     0.791104
      pz      :     0.022457  p :     0.078073
      px      :     0.022459
      py      :     0.033157


                      *****************************
                      * MAYER POPULATION ANALYSIS *
                      *****************************

  NA   - Mulliken gross atomic population
  ZA   - Total nuclear charge
  QA   - Mulliken gross atomic charge
  VA   - Mayer's total valence
  BVA  - Mayer's bonded valence
  FA   - Mayer's free valence

  ATOM       NA         ZA         QA         VA         BVA        FA
  0 C      6.3221     6.0000    -0.3221     3.8782     3.8782     0.0000
  1 C      6.0629     6.0000    -0.0629     3.9254     3.9254     0.0000
  2 H      0.9065     1.0000     0.0935     0.9566     0.9566    -0.0000
  3 H      0.8934     1.0000     0.1066     0.9581     0.9581     0.0000
  4 H      0.8960     1.0000     0.1040     0.9585     0.9585     0.0000
  5 N      7.6383     7.0000    -0.6383     2.8395     2.8395    -0.0000
  6 H      0.8958     1.0000     0.1042     0.9490     0.9490     0.0000
  7 H      0.8937     1.0000     0.1063     0.9485     0.9485    -0.0000
  8 H      0.7459     1.0000     0.2541     0.9147     0.9147     0.0000
  9 H      0.7454     1.0000     0.2546     0.9145     0.9145    -0.0000

  Mayer bond orders larger than 0.1
B(  0-C ,  1-C ) :   1.0106 B(  0-C ,  2-H ) :   0.9569 B(  0-C ,  3-H ) :   0.9657 
B(  0-C ,  4-H ) :   0.9657 B(  1-C ,  5-N ) :   1.0158 B(  1-C ,  6-H ) :   0.9585 
B(  1-C ,  7-H ) :   0.9587 B(  5-N ,  8-H ) :   0.9091 B(  5-N ,  9-H ) :   0.9094 


-------
TIMINGS
-------

Total SCF time: 0 days 0 hours 0 min 28 sec 

Total time                  ....      28.510 sec
Sum of individual times     ....      28.409 sec  ( 99.6%)

Fock matrix formation       ....      26.675 sec  ( 93.6%)
  XC integration            ....       3.555 sec  ( 13.3% of F)
    Basis function eval.    ....       1.600 sec  ( 45.0% of XC)
    Density eval.           ....       0.700 sec  ( 19.7% of XC)
    XC-Functional eval.     ....       0.440 sec  ( 12.4% of XC)
    XC-Potential eval.      ....       0.721 sec  ( 20.3% of XC)
Diagonalization             ....       0.033 sec  (  0.1%)
Density matrix formation    ....       0.002 sec  (  0.0%)
Population analysis         ....       0.004 sec  (  0.0%)
Initial guess               ....       0.460 sec  (  1.6%)
Orbital Transformation      ....       0.000 sec  (  0.0%)
Orbital Orthonormalization  ....       0.000 sec  (  0.0%)
DIIS solution               ....       0.008 sec  (  0.0%)
SOSCF solution              ....       0.024 sec  (  0.1%)
Grid generation             ....       1.203 sec  (  4.2%)

-------------------------   --------------------
FINAL SINGLE POINT ENERGY      -135.091705344674
-------------------------   --------------------

------------------------------------------------------------------------------
                         ORCA SCF GRADIENT CALCULATION
------------------------------------------------------------------------------

Gradient of the Kohn-Sham DFT energy:
Kohn-Sham wavefunction type      ... RKS
Hartree-Fock exchange scaling    ...    0.200
Number of operators              ...    1
Number of atoms                  ...   10
Basis set dimensions             ...   77
Integral neglect threshold       ... 2.5e-11
Integral primitive cutoff        ... 2.5e-12

Nuclear repulsion gradient       ... done
One Electron Gradient            ... done
Pre-screening matrix             ... done
Starting the two electron gradient:
Two electron gradient done
Exchange-correlation gradient    ... done

------------------
CARTESIAN GRADIENT
------------------

   1   C   :    0.012516787   -0.001080426   -0.004208770
   2   C   :   -0.000107439    0.009327794    0.001697682
   3   H   :    0.003490889    0.002475614   -0.000638990
   4   H   :   -0.000797608    0.000362641   -0.000377020
   5   H   :   -0.000398256    0.000017399    0.000729953
   6   N   :   -0.015283790   -0.008046628    0.003404995
   7   H   :   -0.001060485   -0.001599240   -0.000676936
   8   H   :   -0.000614708   -0.001902312    0.000629275
   9   H   :    0.000725788    0.000464857   -0.001394332
  10   H   :    0.001528823   -0.000019698    0.000834143

Difference to translation invariance:
           :   -0.0000000000    0.0000000000    0.0000000000

Norm of the cartesian gradient     ...    0.0246975157
RMS gradient                       ...    0.0045091288
MAX gradient                       ...    0.0152837895

-------
TIMINGS
-------

Total SCF gradient time            ...        9.798 sec

One electron gradient       ....       0.081 sec  (  0.8%)
Prescreening matrices       ....       0.074 sec  (  0.8%)
Two electron gradient       ....       3.921 sec  ( 40.0%)
XC gradient                 ....       4.935 sec  ( 50.4%)
CPCM gradient               ....       0.488 sec  (  5.0%)
   A-Matrix (El+Nuc)        ....       0.032 sec  (  0.3%)
   Potential                ....       0.456 sec  (  4.7%)

                            ***************************************
                            *     ORCA property calculations      *
                            ***************************************

                                    ---------------------
                                    Active property flags
                                    ---------------------
   (+) Dipole Moment


------------------------------------------------------------------------------
                       ORCA ELECTRIC PROPERTIES CALCULATION
------------------------------------------------------------------------------

Dipole Moment Calculation                       ... on
Quadrupole Moment Calculation                   ... off
Polarizability Calculation                      ... off
GBWName                                         ... etanamina.gbw
Electron density file                           ... etanamina.scfp.tmp
The origin for moment calculation is the CENTER OF MASS  = (-6.897785,  0.446865 -0.389466)

-------------
DIPOLE MOMENT
-------------
                                X             Y             Z
Electronic contribution:      1.40931       0.69520      -0.33003
Nuclear contribution   :     -1.75328      -1.26416       0.33766
                        -----------------------------------------
Total Dipole Moment    :     -0.34396      -0.56896       0.00764
                        -----------------------------------------
Magnitude (a.u.)       :      0.66489
Magnitude (Debye)      :      1.69002


----------------------------------------------------------------------------
                           ORCA NUMERICAL FREQUENCIES
----------------------------------------------------------------------------

Number of atoms                ... 10
Central differences            ... used
Number of displacements        ... 60
Numerical increment            ...  0.005 bohr
IR-spectrum generation         ... on
Raman-spectrum generation      ... off
Surface Crossing Hessian       ... off

The output will be reduced. Please look at the following files:
SCF program output             ... >etanamina.lastscf
Integral program output        ... >etanamina.lastint
Gradient program output        ... >etanamina.lastgrad
Dipole moment program output   ... >etanamina.lastmom


         <<<Energy and Gradient at the input geometry>>>
The origin for moment calculation is the CENTER OF MASS  = (-6.897785,  0.446865 -0.389466)
             <<<Displacing   1/coordinate 1 (+)>>>
The origin for moment calculation is the CENTER OF MASS  = (-6.896453,  0.446865 -0.389466)
             <<<Displacing   1/coordinate 1 (-)>>>
The origin for moment calculation is the CENTER OF MASS  = (-6.899117,  0.446865 -0.389466)
             <<<Displacing   1/coordinate 2 (+)>>>
The origin for moment calculation is the CENTER OF MASS  = (-6.897785,  0.448197 -0.389466)
             <<<Displacing   1/coordinate 2 (-)>>>
The origin for moment calculation is the CENTER OF MASS  = (-6.897785,  0.445533 -0.389466)
             <<<Displacing   1/coordinate 3 (+)>>>
The origin for moment calculation is the CENTER OF MASS  = (-6.897785,  0.446865 -0.388134)
             <<<Displacing   1/coordinate 3 (-)>>>
The origin for moment calculation is the CENTER OF MASS  = (-6.897785,  0.446865 -0.390798)
             <<<Displacing   2/coordinate 1 (+)>>>
The origin for moment calculation is the CENTER OF MASS  = (-6.896453,  0.446865 -0.389466)
             <<<Displacing   2/coordinate 1 (-)>>>
The origin for moment calculation is the CENTER OF MASS  = (-6.899117,  0.446865 -0.389466)
             <<<Displacing   2/coordinate 2 (+)>>>
The origin for moment calculation is the CENTER OF MASS  = (-6.897785,  0.448197 -0.389466)
             <<<Displacing   2/coordinate 2 (-)>>>
The origin for moment calculation is the CENTER OF MASS  = (-6.897785,  0.445533 -0.389466)
             <<<Displacing   2/coordinate 3 (+)>>>
The origin for moment calculation is the CENTER OF MASS  = (-6.897785,  0.446865 -0.388134)
             <<<Displacing   2/coordinate 3 (-)>>>
The origin for moment calculation is the CENTER OF MASS  = (-6.897785,  0.446865 -0.390798)
             <<<Displacing   3/coordinate 1 (+)>>>
The origin for moment calculation is the CENTER OF MASS  = (-6.897673,  0.446865 -0.389466)
             <<<Displacing   3/coordinate 1 (-)>>>
The origin for moment calculation is the CENTER OF MASS  = (-6.897897,  0.446865 -0.389466)
             <<<Displacing   3/coordinate 2 (+)>>>
The origin for moment calculation is the CENTER OF MASS  = (-6.897785,  0.446977 -0.389466)
             <<<Displacing   3/coordinate 2 (-)>>>
The origin for moment calculation is the CENTER OF MASS  = (-6.897785,  0.446754 -0.389466)
             <<<Displacing   3/coordinate 3 (+)>>>
The origin for moment calculation is the CENTER OF MASS  = (-6.897785,  0.446865 -0.389354)
             <<<Displacing   3/coordinate 3 (-)>>>
The origin for moment calculation is the CENTER OF MASS  = (-6.897785,  0.446865 -0.389577)
             <<<Displacing   4/coordinate 1 (+)>>>
The origin for moment calculation is the CENTER OF MASS  = (-6.897673,  0.446865 -0.389466)
             <<<Displacing   4/coordinate 1 (-)>>>
The origin for moment calculation is the CENTER OF MASS  = (-6.897897,  0.446865 -0.389466)
             <<<Displacing   4/coordinate 2 (+)>>>
The origin for moment calculation is the CENTER OF MASS  = (-6.897785,  0.446977 -0.389466)
             <<<Displacing   4/coordinate 2 (-)>>>
The origin for moment calculation is the CENTER OF MASS  = (-6.897785,  0.446754 -0.389466)
             <<<Displacing   4/coordinate 3 (+)>>>
The origin for moment calculation is the CENTER OF MASS  = (-6.897785,  0.446865 -0.389354)
             <<<Displacing   4/coordinate 3 (-)>>>
The origin for moment calculation is the CENTER OF MASS  = (-6.897785,  0.446865 -0.389577)
             <<<Displacing   5/coordinate 1 (+)>>>
The origin for moment calculation is the CENTER OF MASS  = (-6.897673,  0.446865 -0.389466)
             <<<Displacing   5/coordinate 1 (-)>>>
The origin for moment calculation is the CENTER OF MASS  = (-6.897897,  0.446865 -0.389466)
             <<<Displacing   5/coordinate 2 (+)>>>
The origin for moment calculation is the CENTER OF MASS  = (-6.897785,  0.446977 -0.389466)
             <<<Displacing   5/coordinate 2 (-)>>>
The origin for moment calculation is the CENTER OF MASS  = (-6.897785,  0.446754 -0.389466)
             <<<Displacing   5/coordinate 3 (+)>>>
The origin for moment calculation is the CENTER OF MASS  = (-6.897785,  0.446865 -0.389354)
             <<<Displacing   5/coordinate 3 (-)>>>
The origin for moment calculation is the CENTER OF MASS  = (-6.897785,  0.446865 -0.389577)
             <<<Displacing   6/coordinate 1 (+)>>>
The origin for moment calculation is the CENTER OF MASS  = (-6.896232,  0.446865 -0.389466)
             <<<Displacing   6/coordinate 1 (-)>>>
The origin for moment calculation is the CENTER OF MASS  = (-6.899338,  0.446865 -0.389466)
             <<<Displacing   6/coordinate 2 (+)>>>
The origin for moment calculation is the CENTER OF MASS  = (-6.897785,  0.448419 -0.389466)
             <<<Displacing   6/coordinate 2 (-)>>>
The origin for moment calculation is the CENTER OF MASS  = (-6.897785,  0.445312 -0.389466)
             <<<Displacing   6/coordinate 3 (+)>>>
The origin for moment calculation is the CENTER OF MASS  = (-6.897785,  0.446865 -0.387912)
             <<<Displacing   6/coordinate 3 (-)>>>
The origin for moment calculation is the CENTER OF MASS  = (-6.897785,  0.446865 -0.391019)
             <<<Displacing   7/coordinate 1 (+)>>>
The origin for moment calculation is the CENTER OF MASS  = (-6.897673,  0.446865 -0.389466)
             <<<Displacing   7/coordinate 1 (-)>>>
The origin for moment calculation is the CENTER OF MASS  = (-6.897897,  0.446865 -0.389466)
             <<<Displacing   7/coordinate 2 (+)>>>
The origin for moment calculation is the CENTER OF MASS  = (-6.897785,  0.446977 -0.389466)
             <<<Displacing   7/coordinate 2 (-)>>>
The origin for moment calculation is the CENTER OF MASS  = (-6.897785,  0.446754 -0.389466)
             <<<Displacing   7/coordinate 3 (+)>>>
The origin for moment calculation is the CENTER OF MASS  = (-6.897785,  0.446865 -0.389354)
             <<<Displacing   7/coordinate 3 (-)>>>
The origin for moment calculation is the CENTER OF MASS  = (-6.897785,  0.446865 -0.389577)
             <<<Displacing   8/coordinate 1 (+)>>>
The origin for moment calculation is the CENTER OF MASS  = (-6.897673,  0.446865 -0.389466)
             <<<Displacing   8/coordinate 1 (-)>>>
The origin for moment calculation is the CENTER OF MASS  = (-6.897897,  0.446865 -0.389466)
             <<<Displacing   8/coordinate 2 (+)>>>
The origin for moment calculation is the CENTER OF MASS  = (-6.897785,  0.446977 -0.389466)
             <<<Displacing   8/coordinate 2 (-)>>>
The origin for moment calculation is the CENTER OF MASS  = (-6.897785,  0.446754 -0.389466)
             <<<Displacing   8/coordinate 3 (+)>>>
The origin for moment calculation is the CENTER OF MASS  = (-6.897785,  0.446865 -0.389354)
             <<<Displacing   8/coordinate 3 (-)>>>
The origin for moment calculation is the CENTER OF MASS  = (-6.897785,  0.446865 -0.389577)
             <<<Displacing   9/coordinate 1 (+)>>>
The origin for moment calculation is the CENTER OF MASS  = (-6.897673,  0.446865 -0.389466)
             <<<Displacing   9/coordinate 1 (-)>>>
The origin for moment calculation is the CENTER OF MASS  = (-6.897897,  0.446865 -0.389466)
             <<<Displacing   9/coordinate 2 (+)>>>
The origin for moment calculation is the CENTER OF MASS  = (-6.897785,  0.446977 -0.389466)
             <<<Displacing   9/coordinate 2 (-)>>>
The origin for moment calculation is the CENTER OF MASS  = (-6.897785,  0.446754 -0.389466)
             <<<Displacing   9/coordinate 3 (+)>>>
The origin for moment calculation is the CENTER OF MASS  = (-6.897785,  0.446865 -0.389354)
             <<<Displacing   9/coordinate 3 (-)>>>
The origin for moment calculation is the CENTER OF MASS  = (-6.897785,  0.446865 -0.389577)
             <<<Displacing  10/coordinate 1 (+)>>>
The origin for moment calculation is the CENTER OF MASS  = (-6.897673,  0.446865 -0.389466)
             <<<Displacing  10/coordinate 1 (-)>>>
The origin for moment calculation is the CENTER OF MASS  = (-6.897897,  0.446865 -0.389466)
             <<<Displacing  10/coordinate 2 (+)>>>
The origin for moment calculation is the CENTER OF MASS  = (-6.897785,  0.446977 -0.389466)
             <<<Displacing  10/coordinate 2 (-)>>>
The origin for moment calculation is the CENTER OF MASS  = (-6.897785,  0.446754 -0.389466)
             <<<Displacing  10/coordinate 3 (+)>>>
The origin for moment calculation is the CENTER OF MASS  = (-6.897785,  0.446865 -0.389354)
             <<<Displacing  10/coordinate 3 (-)>>>
The origin for moment calculation is the CENTER OF MASS  = (-6.897785,  0.446865 -0.389577)

-----------------------
VIBRATIONAL FREQUENCIES
-----------------------

   0:         0.00 cm**-1
   1:         0.00 cm**-1
   2:         0.00 cm**-1
   3:         0.00 cm**-1
   4:         0.00 cm**-1
   5:         0.00 cm**-1
   6:       257.57 cm**-1
   7:       289.82 cm**-1
   8:       418.95 cm**-1
   9:       783.75 cm**-1
  10:       903.04 cm**-1
  11:       923.45 cm**-1
  12:      1009.64 cm**-1
  13:      1086.87 cm**-1
  14:      1159.78 cm**-1
  15:      1273.47 cm**-1
  16:      1377.13 cm**-1
  17:      1384.09 cm**-1
  18:      1413.20 cm**-1
  19:      1477.10 cm**-1
  20:      1495.13 cm**-1
  21:      1505.01 cm**-1
  22:      1645.77 cm**-1
  23:      3036.28 cm**-1
  24:      3055.00 cm**-1
  25:      3092.12 cm**-1
  26:      3109.00 cm**-1
  27:      3117.50 cm**-1
  28:      3467.20 cm**-1
  29:      3545.30 cm**-1


------------
NORMAL MODES
------------

These modes are the cartesian displacements weighted by the diagonal matrix
M(i,i)=1/sqrt(m[i]) where m[i] is the mass of the displaced atom
Thus, these vectors are normalized but *not* orthogonal

                  0          1          2          3          4          5    
      0       0.000000   0.000000   0.000000   0.000000   0.000000   0.000000
      1       0.000000   0.000000   0.000000   0.000000   0.000000   0.000000
      2       0.000000   0.000000   0.000000   0.000000   0.000000   0.000000
      3       0.000000   0.000000   0.000000   0.000000   0.000000   0.000000
      4       0.000000   0.000000   0.000000   0.000000   0.000000   0.000000
      5       0.000000   0.000000   0.000000   0.000000   0.000000   0.000000
      6       0.000000   0.000000   0.000000   0.000000   0.000000   0.000000
      7       0.000000   0.000000   0.000000   0.000000   0.000000   0.000000
      8       0.000000   0.000000   0.000000   0.000000   0.000000   0.000000
      9       0.000000   0.000000   0.000000   0.000000   0.000000   0.000000
     10       0.000000   0.000000   0.000000   0.000000   0.000000   0.000000
     11       0.000000   0.000000   0.000000   0.000000   0.000000   0.000000
     12       0.000000   0.000000   0.000000   0.000000   0.000000   0.000000
     13       0.000000   0.000000   0.000000   0.000000   0.000000   0.000000
     14       0.000000   0.000000   0.000000   0.000000   0.000000   0.000000
     15       0.000000   0.000000   0.000000   0.000000   0.000000   0.000000
     16       0.000000   0.000000   0.000000   0.000000   0.000000   0.000000
     17       0.000000   0.000000   0.000000   0.000000   0.000000   0.000000
     18       0.000000   0.000000   0.000000   0.000000   0.000000   0.000000
     19       0.000000   0.000000   0.000000   0.000000   0.000000   0.000000
     20       0.000000   0.000000   0.000000   0.000000   0.000000   0.000000
     21       0.000000   0.000000   0.000000   0.000000   0.000000   0.000000
     22       0.000000   0.000000   0.000000   0.000000   0.000000   0.000000
     23       0.000000   0.000000   0.000000   0.000000   0.000000   0.000000
     24       0.000000   0.000000   0.000000   0.000000   0.000000   0.000000
     25       0.000000   0.000000   0.000000   0.000000   0.000000   0.000000
     26       0.000000   0.000000   0.000000   0.000000   0.000000   0.000000
     27       0.000000   0.000000   0.000000   0.000000   0.000000   0.000000
     28       0.000000   0.000000   0.000000   0.000000   0.000000   0.000000
     29       0.000000   0.000000   0.000000   0.000000   0.000000   0.000000
                  6          7          8          9         10         11    
      0      -0.006463  -0.007102   0.170030   0.010343   0.039377  -0.174359
      1       0.001992   0.005583   0.020562  -0.006205   0.073602  -0.055973
      2      -0.013205  -0.029839  -0.051382   0.032310   0.003130   0.047234
      3      -0.010366   0.021111  -0.043230   0.023099   0.018536  -0.005203
      4       0.004671  -0.009697   0.159229  -0.013160  -0.057846   0.117838
      5      -0.034822   0.066614   0.040613   0.070425  -0.016453   0.023584
      6       0.150125  -0.092756   0.049935  -0.051222   0.002292  -0.375879
      7      -0.080655   0.047245  -0.376455   0.031956  -0.030100  -0.683653
      8       0.460453  -0.285254  -0.061184  -0.158442  -0.014313  -0.004411
      9       0.250923  -0.175591   0.416139  -0.248982   0.141860   0.176114
     10      -0.185996   0.031735   0.073510  -0.310115   0.089608  -0.014252
     11      -0.381741   0.099840  -0.139693  -0.160582  -0.043528  -0.111133
     12      -0.417342   0.211009   0.393230   0.141106   0.162686   0.209637
     13       0.269265  -0.042646   0.084972   0.367527   0.108937  -0.022744
     14      -0.078396  -0.040281  -0.112884  -0.160081  -0.028498  -0.025629
     15       0.007837  -0.023958  -0.121788  -0.002267  -0.157781   0.095852
     16      -0.002085   0.010988  -0.128821   0.002915  -0.076684  -0.034692
     17       0.019515  -0.068216   0.019021  -0.011437   0.035661  -0.038072
     18      -0.019440   0.121094   0.001125  -0.076635   0.084052   0.170977
     19       0.028896  -0.118983   0.156249   0.491142  -0.013962   0.172368
     20      -0.045957   0.102356   0.035016  -0.151318  -0.038870  -0.022475
     21      -0.013929  -0.027008  -0.000456  -0.082478   0.069090   0.163730
     22      -0.013274   0.070653   0.152334  -0.406668  -0.025212   0.170195
     23      -0.055415   0.185426   0.007754  -0.318874  -0.018781  -0.024318
     24       0.028566  -0.172600  -0.332691  -0.168556   0.497723   0.225848
     25      -0.312135  -0.546589  -0.215631   0.028562   0.392496   0.066553
     26       0.162585   0.207682   0.079305  -0.006041  -0.215326  -0.093264
     27       0.112721   0.301835  -0.345849   0.119797   0.544728   0.237245
     28       0.243476   0.454928  -0.227239  -0.012155   0.356076   0.056445
     29       0.239571   0.239951   0.055695  -0.109879   0.022518  -0.033567
                 12         13         14         15         16         17    
      0      -0.023224  -0.032752  -0.073416   0.037782   0.025978  -0.004419
      1       0.013832  -0.203303   0.089917  -0.021451  -0.052035   0.002302
      2      -0.067834  -0.026739   0.041316   0.114518  -0.018799  -0.012820
      3       0.019814   0.252528   0.126363  -0.040603  -0.146432  -0.022850
      4      -0.011573   0.156425  -0.177630   0.022432  -0.047174   0.013429
      5       0.055320  -0.053177  -0.076264  -0.121259   0.040000  -0.069571
      6       0.045301   0.063321  -0.200652  -0.065027   0.114796  -0.020871
      7      -0.031515   0.126143  -0.356919   0.038751   0.216237   0.014448
      8       0.146422  -0.002272   0.003795  -0.200128   0.002646  -0.065612
      9       0.200051  -0.352212   0.300290  -0.155647   0.031378   0.074461
     10       0.256799  -0.292844   0.113183  -0.299682   0.110048   0.045352
     11       0.079652   0.073647  -0.147757  -0.097489   0.143610  -0.020583
     12      -0.135700  -0.356644   0.343806   0.101721  -0.047076  -0.075820
     13      -0.284564  -0.286884   0.095319   0.328293   0.152383  -0.044321
     14       0.088378   0.051342  -0.027207  -0.062828  -0.089586   0.012175
     15       0.001517  -0.173099  -0.072455   0.010441   0.008465   0.027082
     16      -0.004085   0.024193   0.118392  -0.006546   0.023518  -0.016303
     17       0.014523   0.060951   0.046708   0.032313   0.001620   0.083085
     18      -0.386372   0.328934   0.292661  -0.309576   0.569846   0.518246
     19       0.094201   0.207542  -0.115050  -0.375473   0.251217   0.024121
     20       0.048803  -0.078283  -0.124260   0.089756  -0.173132  -0.139109
     21       0.337148   0.330869   0.291403   0.348421   0.584988  -0.505637
     22      -0.062195   0.202910  -0.113961   0.361216   0.234986  -0.034735
     23      -0.216270  -0.061707  -0.108606   0.015384  -0.117041   0.184058
     24      -0.445260  -0.124718  -0.301449  -0.291427   0.046763  -0.420045
     25       0.044877   0.141944  -0.124966   0.041091  -0.064149   0.101598
     26       0.038237   0.020603   0.163790   0.037289   0.028123   0.072284
     27       0.404380  -0.102975  -0.350136   0.260068   0.016968   0.378265
     28       0.012241   0.123590  -0.097615  -0.014932  -0.045390  -0.067368
     29      -0.237905   0.101956   0.007631  -0.150677  -0.069752  -0.216005
                 18         19         20         21         22         23    
      0       0.103087  -0.023300  -0.013653  -0.017022  -0.001792   0.031414
      1       0.113235   0.027798   0.011283   0.023551  -0.003941   0.038622
      2      -0.011790   0.009223  -0.046306   0.015709  -0.000287  -0.002903
      3      -0.040789  -0.007463  -0.013938  -0.043315   0.018222  -0.002343
      4      -0.031844  -0.046631   0.013820   0.059425   0.028581   0.002371
      5       0.008389  -0.007821  -0.023243   0.028521  -0.000840   0.000991
      6      -0.137840   0.078265   0.216495   0.037414   0.002951  -0.523195
      7      -0.560301   0.241209  -0.120118   0.257992   0.009473   0.165921
      8      -0.077371   0.066846   0.656579  -0.045241   0.001524   0.202170
      9      -0.470381   0.054965  -0.458976   0.107851  -0.002808   0.220943
     10      -0.250667  -0.283994  -0.051762  -0.260352  -0.012057  -0.388921
     11      -0.060119  -0.374583   0.174938  -0.371093  -0.009332   0.354382
     12      -0.395492   0.286778   0.474907   0.166817   0.003367  -0.065616
     13      -0.308591  -0.382238   0.000144  -0.359924  -0.014728  -0.225321
     14       0.238881   0.144384  -0.094805   0.155478   0.004249  -0.521107
     15      -0.000905   0.004224   0.003511   0.002573  -0.053105   0.000275
     16       0.006933  -0.002829  -0.001973  -0.000684   0.045585   0.000065
     17       0.001416  -0.001191   0.010243  -0.002321   0.026195  -0.000084
     18       0.121139  -0.149936   0.064463   0.277741  -0.045598  -0.002121
     19       0.044084   0.410100  -0.103864  -0.382384  -0.030144  -0.013203
     20      -0.046739  -0.186105   0.016462   0.183620   0.032208  -0.035740
     21       0.128528   0.023668  -0.012870   0.087969  -0.058985   0.018123
     22       0.035803   0.311432  -0.008450  -0.276365  -0.022082  -0.025912
     23      -0.020440   0.361288  -0.050960  -0.425768  -0.007664   0.024800
     24       0.016870   0.007705  -0.060081   0.004682   0.444930   0.001106
     25      -0.016068  -0.017811   0.011973   0.023077  -0.501464  -0.000541
     26       0.008461   0.004828   0.008949  -0.013029   0.201563   0.000079
     27       0.007424   0.006432   0.056031   0.000733   0.198310   0.000541
     28      -0.010431  -0.014972   0.000377   0.018755  -0.356039  -0.001376
     29      -0.021823  -0.016811  -0.024777   0.021265  -0.573116  -0.000636
                 24         25         26         27         28         29    
      0       0.006124  -0.015965  -0.065518   0.026649  -0.000213  -0.000072
      1      -0.009374   0.009552   0.053127  -0.015701   0.000414   0.000053
      2      -0.004313  -0.045705   0.035082   0.073033   0.000173  -0.000366
      3      -0.015390   0.024636  -0.003072   0.015976  -0.001742   0.000913
      4       0.062732  -0.014927   0.009225  -0.009643  -0.002948  -0.000458
      5       0.018624   0.074114   0.003680   0.048034  -0.000045   0.002688
      6      -0.059481   0.005147   0.722530  -0.021240  -0.003777  -0.000609
      7       0.022626  -0.000739  -0.213992   0.005165   0.000096   0.000254
      8       0.023713  -0.013604  -0.276411   0.022748   0.001027  -0.000650
      9      -0.028546   0.146933   0.133579  -0.229062   0.001191   0.001284
     10       0.052949  -0.268526  -0.257292   0.425811   0.001693   0.000199
     11      -0.052026   0.232843   0.246646  -0.369011  -0.000129   0.000710
     12       0.013103   0.041370  -0.067007  -0.067490   0.001428  -0.000930
     13       0.032486   0.155047  -0.167448  -0.244185   0.001606  -0.000636
     14       0.079195   0.333636  -0.391800  -0.522341  -0.000154   0.000654
     15      -0.000655  -0.000515   0.000001  -0.000455   0.018578   0.024580
     16      -0.001069   0.000269  -0.000988   0.000310  -0.051687  -0.013697
     17      -0.000091  -0.001631  -0.000226  -0.001475  -0.015120   0.075587
     18      -0.075998  -0.057960  -0.010149  -0.039471   0.003594  -0.001771
     19      -0.279184  -0.242867  -0.039377  -0.152984   0.003962  -0.005226
     20      -0.649182  -0.526137  -0.087596  -0.333677   0.011721  -0.015084
     21       0.271343  -0.238224   0.033222  -0.148301  -0.002973  -0.006758
     22      -0.466027   0.421079  -0.057710   0.266007   0.007520   0.009783
     23       0.424970  -0.363860   0.050766  -0.232049  -0.008750  -0.010536
     24       0.002556   0.004191   0.003603   0.005817   0.062147  -0.063625
     25       0.006309   0.007473   0.002856   0.004665   0.261776  -0.299737
     26       0.011278   0.012437   0.002212   0.005995   0.646749  -0.640617
     27      -0.003473   0.002382   0.001498  -0.001833  -0.296481  -0.279175
     28       0.009906  -0.011156   0.003732  -0.006803   0.471771   0.490513
     29      -0.007208   0.008846  -0.002552   0.006235  -0.441892  -0.412491


-----------
IR SPECTRUM
-----------

 Mode    freq (cm**-1)   T**2         TX         TY         TZ
-------------------------------------------------------------------
   6:       257.57   14.349954  (  1.189069  -0.735842   3.520597)
   7:       289.82   67.997800  (  2.421994  -1.355976   7.764862)
   8:       418.95    8.298118  ( -2.735182   0.490323   0.759264)
   9:       783.75    3.510070  ( -0.752942   0.103458  -1.712439)
  10:       903.04  260.318513  ( 14.631378   5.758914  -3.616104)
  11:       923.45    9.816493  (  2.654745   1.554646  -0.593208)
  12:      1009.64    1.595017  (  0.692466  -0.022213   1.055943)
  13:      1086.87   41.127520  (  5.777859   2.363774  -1.468482)
  14:      1159.78   21.418904  ( -0.379628  -4.543442  -0.794937)
  15:      1273.47    0.009017  ( -0.013245   0.088309  -0.032289)
  16:      1377.13   22.135479  ( -4.429650  -1.171861   1.067904)
  17:      1384.09    0.792694  ( -0.324606   0.225021  -0.797929)
  18:      1413.20    7.951336  ( -2.128649  -1.810437   0.377501)
  19:      1477.10    0.482429  (  0.396753  -0.543504  -0.172101)
  20:      1495.13    6.388234  (  0.819494  -0.625586   2.307662)
  21:      1505.01    0.691673  (  0.394830  -0.689633  -0.245333)
  22:      1645.77   37.793582  (  2.300794  -5.395560  -1.840615)
  23:      3036.28   36.462905  (  3.889173   4.597579  -0.446665)
  24:      3055.00   58.762359  ( -1.596990   7.275115   1.812369)
  25:      3092.12    8.040525  (  0.868302  -0.565811   2.639401)
  26:      3109.00   87.324497  ( -6.946734   5.172026   3.509635)
  27:      3117.50  110.800781  (  3.450978  -2.014016   9.738340)
  28:      3467.20    0.093399  (  0.253543  -0.064215  -0.158085)
  29:      3545.30    0.344907  ( -0.171725   0.039473  -0.560232)

The first frequency considered to be a vibration is 6
The total number of vibrations considered is 24


--------------------------
THERMOCHEMISTRY AT 298.15K
--------------------------

Temperature         ... 298.15 K
Pressure            ... 1.00 atm
Total Mass          ... 45.09 AMU

Throughout the following assumptions are being made:
  (1) The electronic state is orbitally nondegenerate
  (2) There are no thermally accessible electronically excited states
  (3) Hindered rotations indicated by low frequency modes are not
      treated as such but are treated as vibrations and this may
      cause some error
  (4) All equations used are the standard statistical mechanics
      equations for an ideal gas
  (5) All vibrations are strictly harmonic

freq.     257.57  E(vib)   ...       0.30 
freq.     289.82  E(vib)   ...       0.27 
freq.     418.95  E(vib)   ...       0.18 
freq.     783.75  E(vib)   ...       0.05 
freq.     903.04  E(vib)   ...       0.03 
freq.     923.45  E(vib)   ...       0.03 
freq.    1009.64  E(vib)   ...       0.02 
freq.    1086.87  E(vib)   ...       0.02 
freq.    1159.78  E(vib)   ...       0.01 
freq.    1273.47  E(vib)   ...       0.01 
freq.    1377.13  E(vib)   ...       0.01 
freq.    1384.09  E(vib)   ...       0.00 
freq.    1413.20  E(vib)   ...       0.00 
freq.    1477.10  E(vib)   ...       0.00 
freq.    1495.13  E(vib)   ...       0.00 
freq.    1505.01  E(vib)   ...       0.00 
freq.    1645.77  E(vib)   ...       0.00 
freq.    3036.28  E(vib)   ...       0.00 
freq.    3055.00  E(vib)   ...       0.00 
freq.    3092.12  E(vib)   ...       0.00 
freq.    3109.00  E(vib)   ...       0.00 
freq.    3117.50  E(vib)   ...       0.00 
freq.    3467.20  E(vib)   ...       0.00 
freq.    3545.30  E(vib)   ...       0.00 

------------
INNER ENERGY
------------

The inner energy is: U= E(el) + E(ZPE) + E(vib) + E(rot) + E(trans)
    E(el)   - is the total energy from the electronic structure calculation
              = E(kin-el) + E(nuc-el) + E(el-el) + E(nuc-nuc)
    E(ZPE)  - the the zero temperature vibrational energy from the frequency calculation
    E(vib)  - the the finite temperature correction to E(ZPE) due to population
              of excited vibrational states
    E(rot)  - is the rotational thermal energy
    E(trans)- is the translational thermal energy

Summary of contributions to the inner energy U:
Electronic energy                ...   -135.09170534 Eh
Zero point energy                ...      0.09300882 Eh      58.36 kcal/mol
Thermal vibrational correction   ...      0.00152141 Eh       0.95 kcal/mol
Thermal rotational correction    ...      0.00141627 Eh       0.89 kcal/mol
Thermal translational correction ...      0.00141627 Eh       0.89 kcal/mol
-----------------------------------------------------------------------
Total thermal energy                   -134.99434258 Eh


Summary of corrections to the electronic energy:
(perhaps to be used in another calculation)
Total thermal correction                  0.00435395 Eh       2.73 kcal/mol
Non-thermal (ZPE) correction              0.09300882 Eh      58.36 kcal/mol
-----------------------------------------------------------------------
Total correction                          0.09736277 Eh      61.10 kcal/mol


--------
ENTHALPY
--------

The enthalpy is H = U + kB*T
                kB is Boltzmann's constant
Total free energy                 ...   -134.99434258 Eh 
Thermal Enthalpy correction       ...      0.00094421 Eh       0.59 kcal/mol
-----------------------------------------------------------------------
Total Enthalpy                    ...   -134.99339837 Eh


Vibrational entropy computed according to the QRRHO of S. Grimme
Chem.Eur.J. 2012 18 9955


-------
ENTROPY
-------

The entropy contributions are T*S = T*(S(el)+S(vib)+S(rot)+S(trans)
     S(el)   - electronic entropy
     S(vib)  - vibrational entropy
     S(rot)  - rotational entropy
     S(trans)- translational entropy
The entropies will be listed as mutliplied by the temperature to get
units of energy

Electronic entropy                ...      0.00000000 Eh      0.00 kcal/mol
Vibrational entropy               ...      0.00231904 Eh      1.46 kcal/mol
Rotational entropy                ...      0.00963771 Eh      6.05 kcal/mol
Translational entropy             ...      0.01774301 Eh     11.13 kcal/mol
-----------------------------------------------------------------------
Final entropy term                ...      0.02969976 Eh     18.64 kcal/mol


CAUTION: The rotational entropy is not quite correctly treated here
         because it includes a symmetry number that is not yet correctly
         implemented in ORCA!
For a nonlinear molecule the correct rotational entropy is:
    S(rot) = R*(ln(qrot/sn)+1.5)
    R    = 8.31441 J/mol/K = 1.987191683e-3 kcal/mol/K
    qrot = 18143.9357950
    sn is the rotational symmetry number. We have assumed 3 here
       if it is different for your molecule then you should correct
       the printed rotational entropy by manually evaluating the equation
       as given above

For convenience we print out the resulting values for sn=1 - 12:
 sn= 1  qrot/sn=   18143.9358 T*S(rot)=     6.70 kcal/mol T*S(tot)=    19.29 kcal/mol
 sn= 2  qrot/sn=    9071.9679 T*S(rot)=     6.29 kcal/mol T*S(tot)=    18.88 kcal/mol
 sn= 3  qrot/sn=    6047.9786 T*S(rot)=     6.05 kcal/mol T*S(tot)=    18.64 kcal/mol
 sn= 4  qrot/sn=    4535.9839 T*S(rot)=     5.88 kcal/mol T*S(tot)=    18.47 kcal/mol
 sn= 5  qrot/sn=    3628.7872 T*S(rot)=     5.75 kcal/mol T*S(tot)=    18.33 kcal/mol
 sn= 6  qrot/sn=    3023.9893 T*S(rot)=     5.64 kcal/mol T*S(tot)=    18.23 kcal/mol
 sn= 7  qrot/sn=    2591.9908 T*S(rot)=     5.55 kcal/mol T*S(tot)=    18.13 kcal/mol
 sn= 8  qrot/sn=    2267.9920 T*S(rot)=     5.47 kcal/mol T*S(tot)=    18.06 kcal/mol
 sn= 9  qrot/sn=    2015.9929 T*S(rot)=     5.40 kcal/mol T*S(tot)=    17.99 kcal/mol
 sn=10  qrot/sn=    1814.3936 T*S(rot)=     5.33 kcal/mol T*S(tot)=    17.92 kcal/mol
 sn=11  qrot/sn=    1649.4487 T*S(rot)=     5.28 kcal/mol T*S(tot)=    17.87 kcal/mol
 sn=12  qrot/sn=    1511.9946 T*S(rot)=     5.23 kcal/mol T*S(tot)=    17.82 kcal/mol


-------------------
GIBBS FREE ENTHALPY
-------------------

The Gibbs free enthalpy is G = H - T*S

Total enthalpy                    ...   -134.99339837 Eh 
Total entropy correction          ...     -0.02969976 Eh    -18.64 kcal/mol
-----------------------------------------------------------------------
Final Gibbs free enthalpy         ...   -135.02309813 Eh

For completeness - the Gibbs free enthalpy minus the electronic energy
G-E(el)                           ...      0.06860722 Eh     43.05 kcal/mol


Total Time for Numerical Frequencies  :      1457.244 sec
Time for Reference State(s)           :        17.865 sec
Time for Displacements                :      1438.946 sec

Timings for individual modules:

Sum of individual times         ...       60.459 sec (=   1.008 min)
GTO integral calculation        ...        1.250 sec (=   0.021 min)   2.1 %
SCF iterations                  ...       35.813 sec (=   0.597 min)  59.2 %
SCF Gradient evaluation         ...       23.397 sec (=   0.390 min)  38.7 %
                             ****ORCA TERMINATED NORMALLY****
TOTAL RUN TIME: 0 days 0 hours 25 minutes 0 seconds 374 msec
