
                                 *****************
                                 * O   R   C   A *
                                 *****************

           --- An Ab Initio, DFT and Semiempirical electronic structure package ---

                  #######################################################
                  #                        -***-                        #
                  #  Department of molecular theory and spectroscopy    #
                  #              Directorship: Frank Neese              #
                  # Max Planck Institute for Chemical Energy Conversion #
                  #                  D-45470 Muelheim/Ruhr              #
                  #                       Germany                       #
                  #                                                     #
                  #                  All rights reserved                #
                  #                        -***-                        #
                  #######################################################


                         Program Version 4.0.1 -  RELEASE  -


 With contributions from (in alphabetic order):
   Daniel Aravena         : Magnetic Properties
   Michael Atanasov       : Ab Initio Ligand Field Theory
   Ute Becker             : Parallelization
   Martin Brehm           : Molecular dynamics
   Dmytro Bykov           : SCF Hessian
   Vijay G. Chilkuri      : MRCI spin determinant printing
   Dipayan Datta          : RHF DLPNO-CCSD density
   Achintya Kumar Dutta   : EOM-CC, STEOM-CC
   Dmitry Ganyushin       : Spin-Orbit,Spin-Spin,Magnetic field MRCI
   Yang Guo               : DLPNO-NEVPT2, CIM, IAO-localization
   Andreas Hansen         : Spin unrestricted coupled pair/coupled cluster methods
   Lee Huntington         : MR-EOM, pCC
   Robert Izsak           : Overlap fitted RIJCOSX, COSX-SCS-MP3, EOM
   Christian Kollmar      : KDIIS, OOCD, Brueckner-CCSD(T), CCSD density
   Simone Kossmann        : Meta GGA functionals, TD-DFT gradient, OOMP2, MP2 Hessian
   Martin Krupicka        : AUTO-CI
   Dagmar Lenk            : GEPOL surface
   Dimitrios Liakos       : Extrapolation schemes; parallel MDCI
   Dimitrios Manganas     : ROCIS; embedding schemes
   Dimitrios Pantazis     : SARC Basis sets
   Taras Petrenko         : DFT Hessian,TD-DFT gradient, ASA, ECA, R-Raman, ABS, FL, XAS/XES, NRVS
   Peter Pinski           : DLPNO-MP2
   Christoph Reimann      : Effective Core Potentials
   Marius Retegan         : Local ZFS, SOC
   Christoph Riplinger    : Optimizer, TS searches, QM/MM, DLPNO-CCSD(T), (RO)-DLPNO pert. Triples
   Tobias Risthaus        : Range-separated hybrids, TD-DFT gradient, RPA, STAB
   Michael Roemelt        : Restricted open shell CIS
   Masaaki Saitow         : Open-shell DLPNO
   Barbara Sandhoefer     : DKH picture change effects
   Kantharuban Sivalingam : CASSCF convergence, NEVPT2, FIC-MRCI
   Georgi Stoychev        : AutoAux
   Boris Wezisla          : Elementary symmetry handling
   Frank Wennmohs         : Technical directorship


 We gratefully acknowledge several colleagues who have allowed us to
 interface, adapt or use parts of their codes:
   Stefan Grimme, W. Hujo, H. Kruse,             : VdW corrections, initial TS optimization,
                  C. Bannwarth                     DFT functionals, gCP, sTDA/sTD-DF
   Ed Valeev                                     : LibInt (2-el integral package), F12 methods
   Garnet Chan, S. Sharma, J. Yang, R. Olivares  : DMRG
   Ulf Ekstrom                                   : XCFun DFT Library
   Mihaly Kallay                                 : mrcc  (arbitrary order and MRCC methods)
   Andreas Klamt, Michael Diedenhofen            : otool_cosmo (COSMO solvation model)
   Jiri Pittner, Ondrej Demel                    : Mk-CCSD
   Frank Weinhold                                : gennbo (NPA and NBO analysis)
   Christopher J. Cramer and Donald G. Truhlar   : smd solvation model


 Your calculation uses the libint2 library for the computation of 2-el integrals
 For citations please refer to: http://libint.valeyev.net

 This ORCA versions uses:
   CBLAS   interface :  Fast vector & matrix operations
   LAPACKE interface :  Fast linear algebra routines
   SCALAPACK package :  Parallel linear algebra routines




*****************************************
The coordinations will be read from file: etanoico.xyz
*****************************************


Your calculation utilizes the basis: 6-31G(d,p)
   H-He, Li-Ne : W. J. Hehre, R. Ditchfield and J.A. Pople, J. Chem. Phys. 56, 2257 (1972).
                 Note: He and Ne are unpublished basis sets taken from the Gaussian program.
                 Note: Li and B from J. D. Dill and J. A. Pople, J. Chem. Phys. 62, 2921 (1975).
   Na - Ar     : M. M. Francl, W. J. Pietro, W. J. Hehre, J. S. Binkley, M. S. Gordon, 
                 D. J. DeFrees and J. A. Pople, J. Chem. Phys. 77, 3654 (1982).
   K - Zn      : V. A. Rassolov, J. A. Pople, M. A. Ratner, and T. L. Windus, J. Chem. Phys. 109, 1223 (1998).

================================================================================
                                        WARNINGS
                       Please study these warnings very carefully!
================================================================================

Warning: TCutStore was < 0. Adjusted to Thresh (uncritical)

INFO   : the flag for use of LIBINT has been found!

================================================================================
                                       INPUT FILE
================================================================================
NAME = etanoico.inp
|  1> ! B3LYP 6-31G(d,p) Freq
|  2> 
|  3> * xyzfile 0 1 etanoico.xyz
|  4> 
|  5>                          ****END OF INPUT****
================================================================================

                       ****************************
                       * Single Point Calculation *
                       ****************************

---------------------------------
CARTESIAN COORDINATES (ANGSTROEM)
---------------------------------
  C     -4.696170   -0.439770   -0.019030
  C     -3.670950    0.644970   -0.152210
  H     -5.699570   -0.008820   -0.060500
  H     -4.545840   -0.978930    0.919560
  H     -4.586220   -1.145730   -0.847270
  O     -2.850420    0.710780   -1.052990
  O     -3.744890    1.559490    0.840060
  H     -4.450250    1.376070    1.488840

----------------------------
CARTESIAN COORDINATES (A.U.)
----------------------------
  NO LB      ZA    FRAG     MASS         X           Y           Z
   0 C     6.0000    0    12.011   -8.874475   -0.831045   -0.035961
   1 C     6.0000    0    12.011   -6.937090    1.218817   -0.287635
   2 H     1.0000    0     1.008  -10.770626   -0.016667   -0.114328
   3 H     1.0000    0     1.008   -8.590393   -1.849910    1.737717
   4 H     1.0000    0     1.008   -8.666700   -2.165116   -1.601108
   5 O     8.0000    0    15.999   -5.386513    1.343180   -1.989863
   6 O     8.0000    0    15.999   -7.076817    2.947009    1.587483
   7 H     1.0000    0     1.008   -8.409754    2.600395    2.813500

--------------------------------
INTERNAL COORDINATES (ANGSTROEM)
--------------------------------
 C      0   0   0     0.000000000000     0.00000000     0.00000000
 C      1   0   0     1.498490516620     0.00000000     0.00000000
 H      1   2   0     1.092817104277   109.83737541     0.00000000
 H      1   2   3     1.092814624079   109.83795949   238.02076427
 H      1   2   3     1.093823578874   109.33756655   119.00976537
 O      2   1   3     1.220247944231   124.38167061   240.98922719
 O      2   1   3     1.351448743719   112.77822654    60.98964548
 H      7   2   1     0.975751563873   113.61168544     0.00000000

---------------------------
INTERNAL COORDINATES (A.U.)
---------------------------
 C      0   0   0     0.000000000000     0.00000000     0.00000000
 C      1   0   0     2.831736690690     0.00000000     0.00000000
 H      1   2   0     2.065125041548   109.83737541     0.00000000
 H      1   2   3     2.065120354653   109.83795949   238.02076427
 H      1   2   3     2.067027002897   109.33756655   119.00976537
 O      2   1   3     2.305934430077   124.38167061   240.98922719
 O      2   1   3     2.553868009661   112.77822654    60.98964548
 H      7   2   1     1.843903230465   113.61168544     0.00000000

---------------------
BASIS SET INFORMATION
---------------------
There are 3 groups of distinct atoms

 Group   1 Type C   : 10s4p1d contracted to 3s2p1d pattern {631/31/1}
 Group   2 Type H   : 4s1p contracted to 2s1p pattern {31/1}
 Group   3 Type O   : 10s4p1d contracted to 3s2p1d pattern {631/31/1}

Atom   0C    basis set group =>   1
Atom   1C    basis set group =>   1
Atom   2H    basis set group =>   2
Atom   3H    basis set group =>   2
Atom   4H    basis set group =>   2
Atom   5O    basis set group =>   3
Atom   6O    basis set group =>   3
Atom   7H    basis set group =>   2
------------------------------------------------------------------------------
                           ORCA GTO INTEGRAL CALCULATION
------------------------------------------------------------------------------

                         BASIS SET STATISTICS AND STARTUP INFO

 # of primitive gaussian shells          ...   80
 # of primitive gaussian functions       ...  136
 # of contracted shells                  ...   36
 # of contracted basis functions         ...   76
 Highest angular momentum                ...    2
 Maximum contraction depth               ...    6
 Integral package used                   ... LIBINT
 Integral threshhold            Thresh   ...  1.000e-10
 Primitive cut-off              TCut     ...  1.000e-11


------------------------------ INTEGRAL EVALUATION ----------------------------


 * One electron integrals 
 Pre-screening matrix                    ... done
 Shell pair data                         ... done (   0.001 sec)

-------------------------------------------------------------------------------
                                 ORCA SCF
-------------------------------------------------------------------------------

------------
SCF SETTINGS
------------
Hamiltonian:
 Density Functional     Method          .... DFT(GTOs)
 Exchange Functional    Exchange        .... B88
   X-Alpha parameter    XAlpha          ....  0.666667
   Becke's b parameter  XBeta           ....  0.004200
 Correlation Functional Correlation     .... LYP
 LDA part of GGA corr.  LDAOpt          .... VWN-5
 Gradients option       PostSCFGGA      .... off
 Hybrid DFT is turned on
   Fraction HF Exchange ScalHFX         ....  0.200000
   Scaling of DF-GGA-X  ScalDFX         ....  0.720000
   Scaling of DF-GGA-C  ScalDFC         ....  0.810000
   Scaling of DF-LDA-C  ScalLDAC        ....  1.000000
   Perturbative correction              ....  0.000000
   NL short-range parameter             ....  4.800000


General Settings:
 Integral files         IntName         .... etanoico
 Hartree-Fock type      HFTyp           .... RHF
 Total Charge           Charge          ....    0
 Multiplicity           Mult            ....    1
 Number of Electrons    NEL             ....   32
 Basis Dimension        Dim             ....   76
 Nuclear Repulsion      ENuc            ....    120.7481450563 Eh

Convergence Acceleration:
 DIIS                   CNVDIIS         .... on
   Start iteration      DIISMaxIt       ....    12
   Startup error        DIISStart       ....  0.200000
   # of expansion vecs  DIISMaxEq       ....     5
   Bias factor          DIISBfac        ....   1.050
   Max. coefficient     DIISMaxC        ....  10.000
 Newton-Raphson         CNVNR           .... off
 SOSCF                  CNVSOSCF        .... on
   Start iteration      SOSCFMaxIt      ....   150
   Startup grad/error   SOSCFStart      ....  0.003300
 Level Shifting         CNVShift        .... on
   Level shift para.    LevelShift      ....    0.2500
   Turn off err/grad.   ShiftErr        ....    0.0010
 Zerner damping         CNVZerner       .... off
 Static damping         CNVDamp         .... on
   Fraction old density DampFac         ....    0.7000
   Max. Damping (<1)    DampMax         ....    0.9800
   Min. Damping (>=0)   DampMin         ....    0.0000
   Turn off err/grad.   DampErr         ....    0.1000
 Fernandez-Rico         CNVRico         .... off

SCF Procedure:
 Maximum # iterations   MaxIter         ....   125
 SCF integral mode      SCFMode         .... Direct
   Integral package                     .... LIBINT
 Reset frequeny         DirectResetFreq ....    20
 Integral Threshold     Thresh          ....  1.000e-10 Eh
 Primitive CutOff       TCut            ....  1.000e-11 Eh

Convergence Tolerance:
 Convergence Check Mode ConvCheckMode   .... Total+1el-Energy
 Convergence forced     ConvForced      .... 0
 Energy Change          TolE            ....  1.000e-06 Eh
 1-El. energy change                    ....  1.000e-03 Eh
 Orbital Gradient       TolG            ....  5.000e-05
 Orbital Rotation angle TolX            ....  5.000e-05
 DIIS Error             TolErr          ....  1.000e-06


Diagonalization of the overlap matrix:
Smallest eigenvalue                        ... 6.106e-03
Time for diagonalization                   ...    0.002 sec
Threshold for overlap eigenvalues          ... 1.000e-08
Number of eigenvalues below threshold      ... 0
Time for construction of square roots      ...    0.001 sec
Total time needed                          ...    0.003 sec

-------------------
DFT GRID GENERATION
-------------------

General Integration Accuracy     IntAcc      ...  4.340
Radial Grid Type                 RadialGrid  ... Gauss-Chebyshev
Angular Grid (max. acc.)         AngularGrid ... Lebedev-110
Angular grid pruning method      GridPruning ... 3 (G Style)
Weight generation scheme         WeightScheme... Becke
Basis function cutoff            BFCut       ...    1.0000e-10
Integration weight cutoff        WCut        ...    1.0000e-14
Grids for H and He will be reduced by one unit

# of grid points (after initial pruning)     ...   9920 (   0.0 sec)
# of grid points (after weights+screening)   ...   9516 (   0.0 sec)
nearest neighbour list constructed           ...    0.0 sec
Grid point re-assignment to atoms done       ...    0.0 sec
Grid point division into batches done        ...    0.0 sec
Reduced shell lists constructed in    0.1 sec

Total number of grid points                  ...     9516
Total number of batches                      ...      152
Average number of points per batch           ...       62
Average number of grid points per atom       ...     1190
Average number of shells per batch           ...    28.80 (80.01%)
Average number of basis functions per batch  ...    62.10 (81.71%)
Average number of large shells per batch     ...    24.15 (83.84%)
Average number of large basis fcns per batch ...    51.73 (83.31%)
Maximum spatial batch extension              ...  25.60, 23.40, 18.98 au
Average spatial batch extension              ...   4.49,  4.50,  4.16 au

Time for grid setup =    0.131 sec

------------------------------
INITIAL GUESS: MODEL POTENTIAL
------------------------------
Loading Hartree-Fock densities                     ... done
Calculating cut-offs                               ... done
Setting up the integral package                    ... done
Initializing the effective Hamiltonian             ... done
Starting the Coulomb interaction                   ... done (   0.1 sec)
Reading the grid                                   ... done
Mapping shells                                     ... done
Starting the XC term evaluation                    ... done (   0.1 sec)
  promolecular density results
     # of electrons  =     31.998165558
     EX              =    -27.851365444
     EC              =     -1.096532702
     EX+EC           =    -28.947898146
Transforming the Hamiltonian                       ... done (   0.0 sec)
Diagonalizing the Hamiltonian                      ... done (   0.0 sec)
Back transforming the eigenvectors                 ... done (   0.0 sec)
Now organizing SCF variables                       ... done
                      ------------------
                      INITIAL GUESS DONE (   0.5 sec)
                      ------------------
--------------
SCF ITERATIONS
--------------
ITER       Energy         Delta-E        Max-DP      RMS-DP      [F,P]     Damp
               ***  Starting incremental Fock matrix formation  ***
  0   -228.7659142975   0.000000000000 0.09399934  0.00446904  0.2666564 0.7000
  1   -228.8593304106  -0.093416113112 0.04839387  0.00272460  0.0984367 0.7000
                               ***Turning on DIIS***
  2   -228.8905206911  -0.031190280562 0.06680086  0.00364646  0.0412646 0.0000
  3   -228.9455314889  -0.055010797779 0.03395917  0.00192319  0.0521394 0.0000
  4   -228.9554689874  -0.009937498478 0.00982415  0.00054884  0.0164063 0.0000
                      *** Initiating the SOSCF procedure ***
                           *** Shutting down DIIS ***
                      *** Re-Reading the Fockian *** 
                      *** Removing any level shift *** 
ITER      Energy       Delta-E        Grad      Rot      Max-DP    RMS-DP
  5   -228.95648706  -0.0010180753  0.000890  0.000890  0.003006  0.000157
               *** Restarting incremental Fock matrix formation ***
  6   -228.95651630  -0.0000292385  0.000695  0.002153  0.001997  0.000116
  7   -228.95650746   0.0000088443  0.001523  0.001566  0.001317  0.000067
  8   -228.95652154  -0.0000140813  0.000146  0.000308  0.000433  0.000024
  9   -228.95652117   0.0000003688  0.000201  0.000198  0.000259  0.000014
                 **** Energy Check signals convergence ****
              ***Rediagonalizing the Fockian in SOSCF/NRSCF***

               *****************************************************
               *                     SUCCESS                       *
               *           SCF CONVERGED AFTER  10 CYCLES          *
               *****************************************************

Setting up the final grid:

General Integration Accuracy     IntAcc      ...  4.670
Radial Grid Type                 RadialGrid  ... Gauss-Chebyshev
Angular Grid (max. acc.)         AngularGrid ... Lebedev-302
Angular grid pruning method      GridPruning ... 3 (G Style)
Weight generation scheme         WeightScheme... Becke
Basis function cutoff            BFCut       ...    1.0000e-10
Integration weight cutoff        WCut        ...    1.0000e-14
Grids for H and He will be reduced by one unit

# of grid points (after initial pruning)     ...  38424 (   0.0 sec)
# of grid points (after weights+screening)   ...  36699 (   0.1 sec)
nearest neighbour list constructed           ...    0.0 sec
Grid point re-assignment to atoms done       ...    0.0 sec
Grid point division into batches done        ...    0.2 sec
Reduced shell lists constructed in    0.6 sec

Total number of grid points                  ...    36699
Total number of batches                      ...      577
Average number of points per batch           ...       63
Average number of grid points per atom       ...     4587
Average number of shells per batch           ...    26.15 (72.65%)
Average number of basis functions per batch  ...    56.35 (74.14%)
Average number of large shells per batch     ...    21.35 (81.64%)
Average number of large basis fcns per batch ...    45.44 (80.64%)
Maximum spatial batch extension              ...  17.98, 17.99, 19.25 au
Average spatial batch extension              ...   2.88,  2.98,  2.80 au

Final grid set up in    0.7 sec
Final integration                            ... done (   0.6 sec)
Change in XC energy                          ...    -0.000151732
Integrated number of electrons               ...    32.000003779
Previous integrated no of electrons          ...    32.000114465

----------------
TOTAL SCF ENERGY
----------------

Total Energy       :         -228.95667358 Eh           -6230.22783 eV

Components:
Nuclear Repulsion  :          120.74814506 Eh            3285.72407 eV
Electronic Energy  :         -349.70481864 Eh           -9515.95190 eV
One Electron Energy:         -551.35945324 Eh          -15003.25347 eV
Two Electron Energy:          201.65463460 Eh            5487.30158 eV

Virial components:
Potential Energy   :         -456.48498825 Eh          -12421.58803 eV
Kinetic Energy     :          227.52831467 Eh            6191.36020 eV
Virial Ratio       :            2.00627772


DFT components:
N(Alpha)           :       16.000001889295 electrons
N(Beta)            :       16.000001889295 electrons
N(Total)           :       32.000003778590 electrons
E(X)               :      -22.473527264946 Eh       
E(C)               :       -1.298280702926 Eh       
E(XC)              :      -23.771807967872 Eh       

---------------
SCF CONVERGENCE
---------------

  Last Energy change         ...   -6.7792e-07  Tolerance :   1.0000e-06
  Last MAX-Density change    ...    8.5687e-05  Tolerance :   1.0000e-05
  Last RMS-Density change    ...    3.5782e-06  Tolerance :   1.0000e-06
  Last Orbital Gradient      ...    2.1322e-05  Tolerance :   5.0000e-05
  Last Orbital Rotation      ...    3.8989e-05  Tolerance :   5.0000e-05

             **** THE GBW FILE WAS UPDATED (etanoico.gbw) ****
             **** DENSITY FILE WAS UPDATED (etanoico.scfp.tmp) ****
             **** ENERGY FILE WAS UPDATED (etanoico.en.tmp) ****
----------------
ORBITAL ENERGIES
----------------

  NO   OCC          E(Eh)            E(eV) 
   0   2.0000     -19.190325      -522.1953 
   1   2.0000     -19.126447      -520.4571 
   2   2.0000     -10.315895      -280.7098 
   3   2.0000     -10.199391      -277.5395 
   4   2.0000      -1.094362       -29.7791 
   5   2.0000      -1.008940       -27.4547 
   6   2.0000      -0.755943       -20.5703 
   7   2.0000      -0.621433       -16.9101 
   8   2.0000      -0.509598       -13.8669 
   9   2.0000      -0.471629       -12.8337 
  10   2.0000      -0.458312       -12.4713 
  11   2.0000      -0.411873       -11.2076 
  12   2.0000      -0.394378       -10.7316 
  13   2.0000      -0.366241        -9.9659 
  14   2.0000      -0.311052        -8.4641 
  15   2.0000      -0.265794        -7.2326 
  16   0.0000       0.011989         0.3262 
  17   0.0000       0.048365         1.3161 
  18   0.0000       0.118668         3.2291 
  19   0.0000       0.152218         4.1421 
  20   0.0000       0.162093         4.4108 
  21   0.0000       0.210464         5.7270 
  22   0.0000       0.305948         8.3253 
  23   0.0000       0.344850         9.3839 
  24   0.0000       0.523552        14.2466 
  25   0.0000       0.534865        14.5544 
  26   0.0000       0.576820        15.6961 
  27   0.0000       0.585865        15.9422 
  28   0.0000       0.617974        16.8159 
  29   0.0000       0.657058        17.8794 
  30   0.0000       0.724962        19.7272 
  31   0.0000       0.783586        21.3225 
  32   0.0000       0.825367        22.4594 
  33   0.0000       0.848536        23.0898 
  34   0.0000       0.900490        24.5036 
  35   0.0000       0.910841        24.7853 
  36   0.0000       0.929653        25.2971 
  37   0.0000       0.997655        27.1476 
  38   0.0000       1.033867        28.1330 
  39   0.0000       1.084578        29.5129 
  40   0.0000       1.149765        31.2867 
  41   0.0000       1.289774        35.0965 
  42   0.0000       1.361537        37.0493 
  43   0.0000       1.399814        38.0909 
  44   0.0000       1.471588        40.0439 
  45   0.0000       1.569687        42.7134 
  46   0.0000       1.600155        43.5424 
  47   0.0000       1.703191        46.3462 
  48   0.0000       1.725065        46.9414 
  49   0.0000       1.769584        48.1528 
  50   0.0000       1.831134        49.8277 
  51   0.0000       1.875345        51.0307 
  52   0.0000       1.879103        51.1330 
  53   0.0000       2.006628        54.6031 
  54   0.0000       2.012197        54.7547 
  55   0.0000       2.044346        55.6295 
  56   0.0000       2.044846        55.6431 
  57   0.0000       2.208974        60.1092 
  58   0.0000       2.212532        60.2061 
  59   0.0000       2.303393        62.6785 
  60   0.0000       2.351373        63.9841 
  61   0.0000       2.480793        67.5058 
  62   0.0000       2.484886        67.6172 
  63   0.0000       2.581919        70.2576 
  64   0.0000       2.593883        70.5832 
  65   0.0000       2.653021        72.1924 
  66   0.0000       2.718626        73.9776 
  67   0.0000       2.789728        75.9124 
  68   0.0000       2.883942        78.4761 
  69   0.0000       2.915198        79.3266 
  70   0.0000       3.022043        82.2340 
  71   0.0000       3.148788        85.6829 
  72   0.0000       3.190492        86.8177 
  73   0.0000       3.393492        92.3416 
  74   0.0000       3.426140        93.2300 
  75   0.0000       3.495619        95.1206 

                    ********************************
                    * MULLIKEN POPULATION ANALYSIS *
                    ********************************

-----------------------
MULLIKEN ATOMIC CHARGES
-----------------------
   0 C :   -0.421282
   1 C :    0.546420
   2 H :    0.132895
   3 H :    0.135155
   4 H :    0.152580
   5 O :   -0.408439
   6 O :   -0.462136
   7 H :    0.324806
Sum of atomic charges:   -0.0000000

--------------------------------
MULLIKEN REDUCED ORBITAL CHARGES
--------------------------------
  0 C s       :     3.265436  s :     3.265436
      pz      :     1.092034  p :     3.126631
      px      :     1.013233
      py      :     1.021364
      dz2     :     0.006894  d :     0.029214
      dxz     :     0.001272
      dyz     :     0.008330
      dx2y2   :     0.004507
      dxy     :     0.008212
  1 C s       :     2.977940  s :     2.977940
      pz      :     0.736042  p :     2.352086
      px      :     0.823077
      py      :     0.792967
      dz2     :     0.032488  d :     0.123554
      dxz     :     0.020460
      dyz     :     0.032056
      dx2y2   :     0.016320
      dxy     :     0.022230
  2 H s       :     0.855382  s :     0.855382
      pz      :     0.002426  p :     0.011723
      px      :     0.006404
      py      :     0.002894
  3 H s       :     0.853164  s :     0.853164
      pz      :     0.005536  p :     0.011681
      px      :     0.002465
      py      :     0.003680
  4 H s       :     0.836237  s :     0.836237
      pz      :     0.005075  p :     0.011183
      px      :     0.002131
      py      :     0.003977
  5 O s       :     3.860242  s :     3.860242
      pz      :     1.424320  p :     4.520417
      px      :     1.425702
      py      :     1.670395
      dz2     :     0.008031  d :     0.027780
      dxz     :     0.007552
      dyz     :     0.004363
      dx2y2   :     0.004182
      dxy     :     0.003652
  6 O s       :     3.813660  s :     3.813660
      pz      :     1.383895  p :     4.626001
      px      :     1.596754
      py      :     1.645352
      dz2     :     0.002161  d :     0.022475
      dxz     :     0.005005
      dyz     :     0.006021
      dx2y2   :     0.005382
      dxy     :     0.003906
  7 H s       :     0.637309  s :     0.637309
      pz      :     0.014221  p :     0.037886
      px      :     0.015547
      py      :     0.008118


                     *******************************
                     * LOEWDIN POPULATION ANALYSIS *
                     *******************************

----------------------
LOEWDIN ATOMIC CHARGES
----------------------
   0 C :   -0.238427
   1 C :    0.146700
   2 H :    0.089082
   3 H :    0.089767
   4 H :    0.098114
   5 O :   -0.215417
   6 O :   -0.157164
   7 H :    0.187345

-------------------------------
LOEWDIN REDUCED ORBITAL CHARGES
-------------------------------
  0 C s       :     2.925326  s :     2.925326
      pz      :     1.108405  p :     3.251978
      px      :     1.070867
      py      :     1.072705
      dz2     :     0.013576  d :     0.061123
      dxz     :     0.002278
      dyz     :     0.016762
      dx2y2   :     0.009738
      dxy     :     0.018769
  1 C s       :     2.850220  s :     2.850220
      pz      :     0.888740  p :     2.713278
      px      :     0.929280
      py      :     0.895258
      dz2     :     0.075690  d :     0.289802
      dxz     :     0.049599
      dyz     :     0.077255
      dx2y2   :     0.035251
      dxy     :     0.052007
  2 H s       :     0.870789  s :     0.870789
      pz      :     0.007246  p :     0.040129
      px      :     0.023317
      py      :     0.009566
  3 H s       :     0.870114  s :     0.870114
      pz      :     0.020523  p :     0.040119
      px      :     0.007398
      py      :     0.012197
  4 H s       :     0.862181  s :     0.862181
      pz      :     0.018299  p :     0.039705
      px      :     0.006415
      py      :     0.014991
  5 O s       :     3.564260  s :     3.564260
      pz      :     1.471483  p :     4.596677
      px      :     1.469254
      py      :     1.655939
      dz2     :     0.012829  d :     0.054481
      dxz     :     0.020680
      dyz     :     0.007101
      dx2y2   :     0.007907
      dxy     :     0.005963
  6 O s       :     3.472215  s :     3.472215
      pz      :     1.399284  p :     4.636755
      px      :     1.586981
      py      :     1.650490
      dz2     :     0.006217  d :     0.048194
      dxz     :     0.011973
      dyz     :     0.015403
      dx2y2   :     0.009220
      dxy     :     0.005381
  7 H s       :     0.698876  s :     0.698876
      pz      :     0.041410  p :     0.113778
      px      :     0.047945
      py      :     0.024423


                      *****************************
                      * MAYER POPULATION ANALYSIS *
                      *****************************

  NA   - Mulliken gross atomic population
  ZA   - Total nuclear charge
  QA   - Mulliken gross atomic charge
  VA   - Mayer's total valence
  BVA  - Mayer's bonded valence
  FA   - Mayer's free valence

  ATOM       NA         ZA         QA         VA         BVA        FA
  0 C      6.4213     6.0000    -0.4213     3.8254     3.8254     0.0000
  1 C      5.4536     6.0000     0.5464     4.0175     4.0175    -0.0000
  2 H      0.8671     1.0000     0.1329     0.9523     0.9523     0.0000
  3 H      0.8648     1.0000     0.1352     0.9521     0.9521    -0.0000
  4 H      0.8474     1.0000     0.1526     0.9587     0.9587     0.0000
  5 O      8.4084     8.0000    -0.4084     2.1225     2.1225    -0.0000
  6 O      8.4621     8.0000    -0.4621     2.0100     2.0100    -0.0000
  7 H      0.6752     1.0000     0.3248     0.8963     0.8963     0.0000

  Mayer bond orders larger than 0.1
B(  0-C ,  1-C ) :   0.9733 B(  0-C ,  2-H ) :   0.9467 B(  0-C ,  3-H ) :   0.9464 
B(  0-C ,  4-H ) :   0.9549 B(  1-C ,  5-O ) :   1.9807 B(  1-C ,  6-O ) :   1.0607 
B(  6-O ,  7-H ) :   0.8573 

-------
TIMINGS
-------

Total SCF time: 0 days 0 hours 0 min 14 sec 

Total time                  ....      14.954 sec
Sum of individual times     ....      14.930 sec  ( 99.8%)

Fock matrix formation       ....      13.660 sec  ( 91.3%)
  XC integration            ....       2.286 sec  ( 16.7% of F)
    Basis function eval.    ....       0.985 sec  ( 43.1% of XC)
    Density eval.           ....       0.431 sec  ( 18.8% of XC)
    XC-Functional eval.     ....       0.289 sec  ( 12.6% of XC)
    XC-Potential eval.      ....       0.466 sec  ( 20.4% of XC)
Diagonalization             ....       0.017 sec  (  0.1%)
Density matrix formation    ....       0.001 sec  (  0.0%)
Population analysis         ....       0.003 sec  (  0.0%)
Initial guess               ....       0.354 sec  (  2.4%)
Orbital Transformation      ....       0.000 sec  (  0.0%)
Orbital Orthonormalization  ....       0.000 sec  (  0.0%)
DIIS solution               ....       0.004 sec  (  0.0%)
SOSCF solution              ....       0.011 sec  (  0.1%)
Grid generation             ....       0.880 sec  (  5.9%)

-------------------------   --------------------
FINAL SINGLE POINT ENERGY      -228.956673579563
-------------------------   --------------------


                            ***************************************
                            *     ORCA property calculations      *
                            ***************************************

                                    ---------------------
                                    Active property flags
                                    ---------------------
   (+) Dipole Moment


------------------------------------------------------------------------------
                       ORCA ELECTRIC PROPERTIES CALCULATION
------------------------------------------------------------------------------

Dipole Moment Calculation                       ... on
Quadrupole Moment Calculation                   ... off
Polarizability Calculation                      ... off
GBWName                                         ... etanoico.gbw
Electron density file                           ... etanoico.scfp.tmp
The origin for moment calculation is the CENTER OF MASS  = (-7.094560,  1.196521 -0.124324)

-------------
DIPOLE MOMENT
-------------
                                X             Y             Z
Electronic contribution:      2.70523       2.54774      -0.65912
Nuclear contribution   :     -3.98759      -3.07184       1.65354
                        -----------------------------------------
Total Dipole Moment    :     -1.28237      -0.52411       0.99442
                        -----------------------------------------
Magnitude (a.u.)       :      1.70529
Magnitude (Debye)      :      4.33452


-------------------------------------------------------------------------------
                               ORCA SCF HESSIAN
-------------------------------------------------------------------------------

Hessian of the Kohn-Sham DFT energy:
Kohn-Sham wavefunction type                      ... RKS
Hartree-Fock exchange scaling                    ...    0.200
Number of operators                              ...    1
Number of atoms                                  ...    8
Basis set dimensions                             ...   76
Integral neglect threshold                       ... 1.0e-10
Integral primitive cutoff                        ... 1.0e-11

Setting up DFT Hessian calculations              ... 
Electron density on the grid                     ... found on disk
Electron density on the final grid               ... found on disk
Building xc-kernel on the grid                   ... done   (      0.0 sec)
Building xc-kernel on the final grid             ... done   (      0.2 sec)
                                                     done   (      0.2 sec)

Nuclear repulsion Hessian                        ... done   (      0.0 sec)

----------------------------------------------
Forming right-hand sides of CP-SCF equations     ...
----------------------------------------------
One electron integral derivatives                ... done   (      0.2 sec)
Transforming the overlap derivative matrices     ... done   (      0.0 sec)
Making the Q(x) pseudodensities                  ... done   (      0.0 sec)
Adding the E*S(x)*S(y) terms to the Hessian      ... done   (      0.0 sec)
Calculating energy weighted overlap derivatives  ... done   (      0.0 sec)
Two electron integral derivatives                ... done   (      5.0 sec)
Exchange-correlation integral derivatives        ... done   (     15.8 sec)
tr(F(y)Q(x)) contribution to the Hessian         ... done   (      0.0 sec)
Response fock operator R(S(x))                   ... done   (      6.7 sec)
XC Response fock operator R(S(x))                ... done   (      5.7 sec)
tr(F(y)S(x)) contribution to the Hessian         ... done   (      0.0 sec)
Transforming and finalizing RHSs                 ... done   (      0.0 sec)

----------------------------------------------
Solving the CP-SCF equations                     ...
----------------------------------------------
     CP-SCF ITERATION   0: 
     CP-SCF ITERATION   1:      0.002984355216
     CP-SCF ITERATION   2:      0.000335861997
     CP-SCF ITERATION   3:      0.000030496307
     CP-SCF ITERATION   4:      0.000003697539
     CP-SCF ITERATION   5:      0.000000987066

                                                 ... done   (     63.7 sec)
Forming perturbed density Hessian contributions  ... done   (      0.0 sec)
Making the perturbed densities                   ... done   (      0.0 sec)
2nd integral derivative contribs                 ... done   (     29.5 sec)
Exchange-correlation Hessian                     ... done   (     19.3 sec)
Dipol derivatives                                ... done   (      0.5 sec)

Total SCF Hessian time: 0 days 0 hours 2 min 26 sec 

Writing the Hessian file to the disk             ... done


-----------------------
VIBRATIONAL FREQUENCIES
-----------------------

   0:         0.00 cm**-1
   1:         0.00 cm**-1
   2:         0.00 cm**-1
   3:         0.00 cm**-1
   4:         0.00 cm**-1
   5:         0.00 cm**-1
   6:       116.80 cm**-1
   7:       445.22 cm**-1
   8:       522.87 cm**-1
   9:       600.36 cm**-1
  10:       637.55 cm**-1
  11:       900.21 cm**-1
  12:      1005.25 cm**-1
  13:      1073.28 cm**-1
  14:      1215.69 cm**-1
  15:      1337.74 cm**-1
  16:      1413.22 cm**-1
  17:      1471.66 cm**-1
  18:      1507.94 cm**-1
  19:      1807.15 cm**-1
  20:      3059.59 cm**-1
  21:      3144.23 cm**-1
  22:      3148.16 cm**-1
  23:      3690.42 cm**-1


------------
NORMAL MODES
------------

These modes are the cartesian displacements weighted by the diagonal matrix
M(i,i)=1/sqrt(m[i]) where m[i] is the mass of the displaced atom
Thus, these vectors are normalized but *not* orthogonal

                  0          1          2          3          4          5    
      0       0.000000   0.000000   0.000000   0.000000   0.000000   0.000000
      1       0.000000   0.000000   0.000000   0.000000   0.000000   0.000000
      2       0.000000   0.000000   0.000000   0.000000   0.000000   0.000000
      3       0.000000   0.000000   0.000000   0.000000   0.000000   0.000000
      4       0.000000   0.000000   0.000000   0.000000   0.000000   0.000000
      5       0.000000   0.000000   0.000000   0.000000   0.000000   0.000000
      6       0.000000   0.000000   0.000000   0.000000   0.000000   0.000000
      7       0.000000   0.000000   0.000000   0.000000   0.000000   0.000000
      8       0.000000   0.000000   0.000000   0.000000   0.000000   0.000000
      9       0.000000   0.000000   0.000000   0.000000   0.000000   0.000000
     10       0.000000   0.000000   0.000000   0.000000   0.000000   0.000000
     11       0.000000   0.000000   0.000000   0.000000   0.000000   0.000000
     12       0.000000   0.000000   0.000000   0.000000   0.000000   0.000000
     13       0.000000   0.000000   0.000000   0.000000   0.000000   0.000000
     14       0.000000   0.000000   0.000000   0.000000   0.000000   0.000000
     15       0.000000   0.000000   0.000000   0.000000   0.000000   0.000000
     16       0.000000   0.000000   0.000000   0.000000   0.000000   0.000000
     17       0.000000   0.000000   0.000000   0.000000   0.000000   0.000000
     18       0.000000   0.000000   0.000000   0.000000   0.000000   0.000000
     19       0.000000   0.000000   0.000000   0.000000   0.000000   0.000000
     20       0.000000   0.000000   0.000000   0.000000   0.000000   0.000000
     21       0.000000   0.000000   0.000000   0.000000   0.000000   0.000000
     22       0.000000   0.000000   0.000000   0.000000   0.000000   0.000000
     23       0.000000   0.000000   0.000000   0.000000   0.000000   0.000000
                  6          7          8          9         10         11    
      0       0.001900  -0.047049   0.006565  -0.231721   0.018157   0.238397
      1      -0.001615   0.097346  -0.005573  -0.233868  -0.015860   0.267378
      2       0.001395   0.151720   0.005181   0.041098   0.015941  -0.016472
      3       0.013395   0.067732  -0.113651  -0.099552   0.119629  -0.146489
      4      -0.011274  -0.034422   0.095692  -0.136452  -0.100808  -0.090259
      5       0.011550  -0.114778  -0.096312  -0.020657   0.101616   0.083575
      6       0.023587   0.055115  -0.118878  -0.216678   0.147227   0.264939
      7       0.003674   0.349574  -0.297591  -0.198098   0.297531   0.315050
      8      -0.599270   0.285969   0.029473   0.067515  -0.039796  -0.025491
      9      -0.426493   0.052079   0.248163  -0.218856  -0.261466   0.285204
     10       0.334245   0.355708   0.188382  -0.189964  -0.203895   0.301390
     11       0.257321   0.284876   0.078951   0.063517  -0.055589  -0.010457
     12       0.333864  -0.426984   0.133419  -0.315297  -0.143713   0.369912
     13      -0.280046  -0.173215  -0.111146  -0.298832   0.119929   0.370132
     14       0.282796   0.334233   0.111982   0.078357  -0.121287  -0.068251
     15      -0.034644   0.128100   0.020484   0.079971  -0.054806  -0.159183
     16       0.028948   0.095728  -0.017768   0.294360   0.046734   0.018450
     17      -0.029283  -0.055989   0.017584   0.198296  -0.046436   0.205556
     18       0.024413  -0.113379   0.077274   0.195860   0.001000   0.023601
     19      -0.020344  -0.156825  -0.064506   0.001634  -0.000684  -0.221338
     20       0.020661  -0.021004   0.065751  -0.228503   0.000224  -0.246784
     21       0.049181  -0.160306  -0.538311   0.320171  -0.529852   0.136764
     22      -0.040852  -0.312124   0.452386   0.401487   0.445711   0.123163
     23       0.041753  -0.123226  -0.457228   0.026478  -0.450620  -0.041006
                 12         13         14         15         16         17    
      0       0.073826   0.105536  -0.008418  -0.032644   0.120588   0.009410
      1      -0.049381  -0.088037   0.042301   0.009615   0.138617  -0.027669
      2      -0.136382   0.088748   0.051651   0.048173  -0.005409  -0.038659
      3      -0.032879  -0.129237  -0.038291  -0.077944  -0.038462  -0.019569
      4      -0.063257   0.108066  -0.100838  -0.223666  -0.114646  -0.030698
      5      -0.022710  -0.109675  -0.054610  -0.129573  -0.068048  -0.007214
      6       0.236356   0.350087  -0.024589   0.120168  -0.184728  -0.033954
      7       0.364358   0.500696  -0.028933   0.305682  -0.554628  -0.059530
      8       0.193175  -0.180869  -0.096441  -0.254005   0.081488   0.619304
      9       0.161161  -0.536267   0.043528   0.409541  -0.472089  -0.479313
     10       0.431697  -0.342554  -0.085894   0.061768  -0.312516   0.316120
     11       0.127681   0.024645  -0.039154  -0.006860  -0.165292   0.239903
     12      -0.444095  -0.219885   0.242971   0.327162  -0.368368   0.354138
     13      -0.412098   0.182685   0.217863   0.266167  -0.217301   0.228261
     14       0.114735  -0.185132  -0.069675  -0.122943   0.223059  -0.190983
     15      -0.031425   0.026503   0.061443  -0.001836  -0.004160   0.015482
     16      -0.011284  -0.022383   0.012120   0.027851   0.012562   0.006533
     17       0.025522   0.022733  -0.060393   0.029680   0.017322  -0.011736
     18      -0.000631   0.014610  -0.054306   0.041120   0.009607   0.003454
     19       0.053751  -0.012312  -0.020950   0.124193   0.044109   0.010820
     20       0.053827   0.012529   0.043265   0.074467   0.032370   0.006605
     21       0.067457   0.035928   0.181387  -0.162662  -0.039848  -0.020380
     22       0.284169  -0.028807   0.734628  -0.496294  -0.100677  -0.064803
     23       0.200679   0.031043   0.512391  -0.299271  -0.052669  -0.040185
                 18         19         20         21         22         23    
      0      -0.035172  -0.057247   0.034810  -0.032746   0.058388  -0.000151
      1       0.029193  -0.031775   0.033641   0.044318  -0.048476   0.000188
      2      -0.029806   0.035975  -0.007431   0.075012   0.054122   0.000373
      3      -0.013154   0.488100  -0.000743  -0.001865   0.000500   0.002439
      4       0.011149   0.073763  -0.001797   0.000745  -0.000444   0.002349
      5      -0.011135  -0.501741  -0.000902   0.002868   0.000612  -0.000544
      6       0.104296  -0.070800  -0.548532   0.369445  -0.631785  -0.000754
      7       0.348713  -0.098979   0.242596  -0.155135   0.267532  -0.000064
      8       0.316855   0.104004  -0.021862   0.025369  -0.012231   0.001314
      9      -0.036223  -0.153886   0.086300  -0.052669  -0.087520  -0.001144
     10      -0.402377  -0.029469  -0.290372   0.176308   0.350476   0.000262
     11      -0.259913   0.033568   0.515696  -0.286495  -0.623152   0.000941
     12       0.468564   0.217557   0.060556   0.084339   0.015240   0.001291
     13      -0.393694   0.142823  -0.335991  -0.545045  -0.032899   0.002987
     14       0.397497  -0.114632  -0.403870  -0.640293  -0.017296   0.001479
     15       0.000706  -0.284972  -0.000206   0.000605   0.000270  -0.000932
     16      -0.000603  -0.034767   0.000127  -0.000195  -0.000217  -0.000338
     17       0.000619   0.301097   0.000377  -0.000943   0.000169   0.000765
     18       0.002555  -0.043911  -0.000046   0.000269  -0.000246   0.044631
     19      -0.002159  -0.019884   0.000064  -0.000385   0.000196   0.009822
     20       0.002160   0.032046   0.000109  -0.000664  -0.000243  -0.042828
     21      -0.012557   0.093277  -0.000255  -0.002581   0.001989  -0.720237
     22       0.010499   0.352731   0.001295  -0.003889  -0.001869  -0.183942
     23      -0.010721   0.239316   0.001613  -0.001070   0.001651   0.665935


-----------
IR SPECTRUM
-----------

 Mode    freq (cm**-1)   T**2         TX         TY         TZ
-------------------------------------------------------------------
   6:       116.80    0.019001  (  0.068948  -0.061966   0.102016)
   7:       445.22    3.775543  ( -0.557596  -1.585216  -0.975561)
   8:       522.87   84.709893  ( -5.896073   4.980816  -5.013749)
   9:       600.36    6.872857  ( -1.983469  -1.447514   0.918373)
  10:       637.55   27.579536  ( -3.389239   2.821377  -2.851741)
  11:       900.21   17.154265  ( -1.183970   2.041319   3.403747)
  12:      1005.25    2.113838  ( -0.209895  -1.126334  -0.895072)
  13:      1073.28    4.505061  ( -1.389963   1.119771  -1.148555)
  14:      1215.69   19.820556  ( -0.894019   2.523177   3.557368)
  15:      1337.74  327.298591  ( -0.202237 -12.966697 -12.614375)
  16:      1413.22  119.198432  ( -3.329242  -9.104368  -5.022455)
  17:      1471.66    3.910508  ( -1.496684  -1.043953   0.761975)
  18:      1507.94    8.815218  (  1.888712  -1.586467   1.652606)
  19:      1807.15  247.617699  ( 10.986135   1.823730 -11.117398)
  20:      3059.59    3.069120  (  1.354319   0.688245  -0.872501)
  21:      3144.23    6.971430  ( -0.767331   1.410925   2.095691)
  22:      3148.16    8.486237  (  1.822250  -1.524700   1.685507)
  23:      3690.42   42.374658  ( -3.743429   0.853351   5.256728)

The first frequency considered to be a vibration is 6
The total number of vibrations considered is 18


--------------------------
THERMOCHEMISTRY AT 298.15K
--------------------------

Temperature         ... 298.15 K
Pressure            ... 1.00 atm
Total Mass          ... 60.05 AMU

Throughout the following assumptions are being made:
  (1) The electronic state is orbitally nondegenerate
  (2) There are no thermally accessible electronically excited states
  (3) Hindered rotations indicated by low frequency modes are not
      treated as such but are treated as vibrations and this may
      cause some error
  (4) All equations used are the standard statistical mechanics
      equations for an ideal gas
  (5) All vibrations are strictly harmonic

freq.     116.80  E(vib)   ...       0.44 
freq.     445.22  E(vib)   ...       0.17 
freq.     522.87  E(vib)   ...       0.13 
freq.     600.36  E(vib)   ...       0.10 
freq.     637.55  E(vib)   ...       0.09 
freq.     900.21  E(vib)   ...       0.03 
freq.    1005.25  E(vib)   ...       0.02 
freq.    1073.28  E(vib)   ...       0.02 
freq.    1215.69  E(vib)   ...       0.01 
freq.    1337.74  E(vib)   ...       0.01 
freq.    1413.22  E(vib)   ...       0.00 
freq.    1471.66  E(vib)   ...       0.00 
freq.    1507.94  E(vib)   ...       0.00 
freq.    1807.15  E(vib)   ...       0.00 
freq.    3059.59  E(vib)   ...       0.00 
freq.    3144.23  E(vib)   ...       0.00 
freq.    3148.16  E(vib)   ...       0.00 
freq.    3690.42  E(vib)   ...       0.00 

------------
INNER ENERGY
------------

The inner energy is: U= E(el) + E(ZPE) + E(vib) + E(rot) + E(trans)
    E(el)   - is the total energy from the electronic structure calculation
              = E(kin-el) + E(nuc-el) + E(el-el) + E(nuc-nuc)
    E(ZPE)  - the the zero temperature vibrational energy from the frequency calculation
    E(vib)  - the the finite temperature correction to E(ZPE) due to population
              of excited vibrational states
    E(rot)  - is the rotational thermal energy
    E(trans)- is the translational thermal energy

Summary of contributions to the inner energy U:
Electronic energy                ...   -228.95667358 Eh
Zero point energy                ...      0.06173229 Eh      38.74 kcal/mol
Thermal vibrational correction   ...      0.00164065 Eh       1.03 kcal/mol
Thermal rotational correction    ...      0.00141627 Eh       0.89 kcal/mol
Thermal translational correction ...      0.00141627 Eh       0.89 kcal/mol
-----------------------------------------------------------------------
Total thermal energy                   -228.89046809 Eh


Summary of corrections to the electronic energy:
(perhaps to be used in another calculation)
Total thermal correction                  0.00447319 Eh       2.81 kcal/mol
Non-thermal (ZPE) correction              0.06173229 Eh      38.74 kcal/mol
-----------------------------------------------------------------------
Total correction                          0.06620549 Eh      41.54 kcal/mol


--------
ENTHALPY
--------

The enthalpy is H = U + kB*T
                kB is Boltzmann's constant
Total free energy                 ...   -228.89046809 Eh 
Thermal Enthalpy correction       ...      0.00094421 Eh       0.59 kcal/mol
-----------------------------------------------------------------------
Total Enthalpy                    ...   -228.88952388 Eh


Vibrational entropy computed according to the QRRHO of S. Grimme
Chem.Eur.J. 2012 18 9955


-------
ENTROPY
-------

The entropy contributions are T*S = T*(S(el)+S(vib)+S(rot)+S(trans)
     S(el)   - electronic entropy
     S(vib)  - vibrational entropy
     S(rot)  - rotational entropy
     S(trans)- translational entropy
The entropies will be listed as mutliplied by the temperature to get
units of energy

Electronic entropy                ...      0.00000000 Eh      0.00 kcal/mol
Vibrational entropy               ...      0.00268823 Eh      1.69 kcal/mol
Rotational entropy                ...      0.01030086 Eh      6.46 kcal/mol
Translational entropy             ...      0.01814900 Eh     11.39 kcal/mol
-----------------------------------------------------------------------
Final entropy term                ...      0.03113808 Eh     19.54 kcal/mol


CAUTION: The rotational entropy is not quite correctly treated here
         because it includes a symmetry number that is not yet correctly
         implemented in ORCA!
For a nonlinear molecule the correct rotational entropy is:
    S(rot) = R*(ln(qrot/sn)+1.5)
    R    = 8.31441 J/mol/K = 1.987191683e-3 kcal/mol/K
    qrot = 36623.5371550
    sn is the rotational symmetry number. We have assumed 3 here
       if it is different for your molecule then you should correct
       the printed rotational entropy by manually evaluating the equation
       as given above

For convenience we print out the resulting values for sn=1 - 12:
 sn= 1  qrot/sn=   36623.5372 T*S(rot)=     7.11 kcal/mol T*S(tot)=    20.19 kcal/mol
 sn= 2  qrot/sn=   18311.7686 T*S(rot)=     6.70 kcal/mol T*S(tot)=    19.78 kcal/mol
 sn= 3  qrot/sn=   12207.8457 T*S(rot)=     6.46 kcal/mol T*S(tot)=    19.54 kcal/mol
 sn= 4  qrot/sn=    9155.8843 T*S(rot)=     6.29 kcal/mol T*S(tot)=    19.37 kcal/mol
 sn= 5  qrot/sn=    7324.7074 T*S(rot)=     6.16 kcal/mol T*S(tot)=    19.24 kcal/mol
 sn= 6  qrot/sn=    6103.9229 T*S(rot)=     6.05 kcal/mol T*S(tot)=    19.13 kcal/mol
 sn= 7  qrot/sn=    5231.9339 T*S(rot)=     5.96 kcal/mol T*S(tot)=    19.04 kcal/mol
 sn= 8  qrot/sn=    4577.9421 T*S(rot)=     5.88 kcal/mol T*S(tot)=    18.96 kcal/mol
 sn= 9  qrot/sn=    4069.2819 T*S(rot)=     5.81 kcal/mol T*S(tot)=    18.89 kcal/mol
 sn=10  qrot/sn=    3662.3537 T*S(rot)=     5.75 kcal/mol T*S(tot)=    18.83 kcal/mol
 sn=11  qrot/sn=    3329.4125 T*S(rot)=     5.69 kcal/mol T*S(tot)=    18.77 kcal/mol
 sn=12  qrot/sn=    3051.9614 T*S(rot)=     5.64 kcal/mol T*S(tot)=    18.72 kcal/mol


-------------------
GIBBS FREE ENTHALPY
-------------------

The Gibbs free enthalpy is G = H - T*S

Total enthalpy                    ...   -228.88952388 Eh 
Total entropy correction          ...     -0.03113808 Eh    -19.54 kcal/mol
-----------------------------------------------------------------------
Final Gibbs free enthalpy         ...   -228.92066197 Eh

For completeness - the Gibbs free enthalpy minus the electronic energy
G-E(el)                           ...      0.03601161 Eh     22.60 kcal/mol


Timings for individual modules:

Sum of individual times         ...      161.987 sec (=   2.700 min)
GTO integral calculation        ...        0.471 sec (=   0.008 min)   0.3 %
SCF iterations                  ...       14.984 sec (=   0.250 min)   9.2 %
Analytical frequency calculation...      146.533 sec (=   2.442 min)  90.5 %
                             ****ORCA TERMINATED NORMALLY****
TOTAL RUN TIME: 0 days 0 hours 2 minutes 42 seconds 343 msec
