
                                 *****************
                                 * O   R   C   A *
                                 *****************

           --- An Ab Initio, DFT and Semiempirical electronic structure package ---

                  #######################################################
                  #                        -***-                        #
                  #  Department of molecular theory and spectroscopy    #
                  #              Directorship: Frank Neese              #
                  # Max Planck Institute for Chemical Energy Conversion #
                  #                  D-45470 Muelheim/Ruhr              #
                  #                       Germany                       #
                  #                                                     #
                  #                  All rights reserved                #
                  #                        -***-                        #
                  #######################################################


                         Program Version 4.0.1 -  RELEASE  -


 With contributions from (in alphabetic order):
   Daniel Aravena         : Magnetic Properties
   Michael Atanasov       : Ab Initio Ligand Field Theory
   Ute Becker             : Parallelization
   Martin Brehm           : Molecular dynamics
   Dmytro Bykov           : SCF Hessian
   Vijay G. Chilkuri      : MRCI spin determinant printing
   Dipayan Datta          : RHF DLPNO-CCSD density
   Achintya Kumar Dutta   : EOM-CC, STEOM-CC
   Dmitry Ganyushin       : Spin-Orbit,Spin-Spin,Magnetic field MRCI
   Yang Guo               : DLPNO-NEVPT2, CIM, IAO-localization
   Andreas Hansen         : Spin unrestricted coupled pair/coupled cluster methods
   Lee Huntington         : MR-EOM, pCC
   Robert Izsak           : Overlap fitted RIJCOSX, COSX-SCS-MP3, EOM
   Christian Kollmar      : KDIIS, OOCD, Brueckner-CCSD(T), CCSD density
   Simone Kossmann        : Meta GGA functionals, TD-DFT gradient, OOMP2, MP2 Hessian
   Martin Krupicka        : AUTO-CI
   Dagmar Lenk            : GEPOL surface
   Dimitrios Liakos       : Extrapolation schemes; parallel MDCI
   Dimitrios Manganas     : ROCIS; embedding schemes
   Dimitrios Pantazis     : SARC Basis sets
   Taras Petrenko         : DFT Hessian,TD-DFT gradient, ASA, ECA, R-Raman, ABS, FL, XAS/XES, NRVS
   Peter Pinski           : DLPNO-MP2
   Christoph Reimann      : Effective Core Potentials
   Marius Retegan         : Local ZFS, SOC
   Christoph Riplinger    : Optimizer, TS searches, QM/MM, DLPNO-CCSD(T), (RO)-DLPNO pert. Triples
   Tobias Risthaus        : Range-separated hybrids, TD-DFT gradient, RPA, STAB
   Michael Roemelt        : Restricted open shell CIS
   Masaaki Saitow         : Open-shell DLPNO
   Barbara Sandhoefer     : DKH picture change effects
   Kantharuban Sivalingam : CASSCF convergence, NEVPT2, FIC-MRCI
   Georgi Stoychev        : AutoAux
   Boris Wezisla          : Elementary symmetry handling
   Frank Wennmohs         : Technical directorship


 We gratefully acknowledge several colleagues who have allowed us to
 interface, adapt or use parts of their codes:
   Stefan Grimme, W. Hujo, H. Kruse,             : VdW corrections, initial TS optimization,
                  C. Bannwarth                     DFT functionals, gCP, sTDA/sTD-DF
   Ed Valeev                                     : LibInt (2-el integral package), F12 methods
   Garnet Chan, S. Sharma, J. Yang, R. Olivares  : DMRG
   Ulf Ekstrom                                   : XCFun DFT Library
   Mihaly Kallay                                 : mrcc  (arbitrary order and MRCC methods)
   Andreas Klamt, Michael Diedenhofen            : otool_cosmo (COSMO solvation model)
   Jiri Pittner, Ondrej Demel                    : Mk-CCSD
   Frank Weinhold                                : gennbo (NPA and NBO analysis)
   Christopher J. Cramer and Donald G. Truhlar   : smd solvation model


 Your calculation uses the libint2 library for the computation of 2-el integrals
 For citations please refer to: http://libint.valeyev.net

 This ORCA versions uses:
   CBLAS   interface :  Fast vector & matrix operations
   LAPACKE interface :  Fast linear algebra routines
   SCALAPACK package :  Parallel linear algebra routines




*****************************************
The coordinations will be read from file: etanamina.xyz
*****************************************


Your calculation utilizes the basis: 6-31G(d,p)
   H-He, Li-Ne : W. J. Hehre, R. Ditchfield and J.A. Pople, J. Chem. Phys. 56, 2257 (1972).
                 Note: He and Ne are unpublished basis sets taken from the Gaussian program.
                 Note: Li and B from J. D. Dill and J. A. Pople, J. Chem. Phys. 62, 2921 (1975).
   Na - Ar     : M. M. Francl, W. J. Pietro, W. J. Hehre, J. S. Binkley, M. S. Gordon, 
                 D. J. DeFrees and J. A. Pople, J. Chem. Phys. 77, 3654 (1982).
   K - Zn      : V. A. Rassolov, J. A. Pople, M. A. Ratner, and T. L. Windus, J. Chem. Phys. 109, 1223 (1998).

================================================================================
                                        WARNINGS
                       Please study these warnings very carefully!
================================================================================

Warning: TCutStore was < 0. Adjusted to Thresh (uncritical)

INFO   : the flag for use of LIBINT has been found!

================================================================================
                                       INPUT FILE
================================================================================
NAME = etanamina.inp
|  1> ! B3LYP 6-31G(d,p) Freq
|  2> 
|  3> * xyzfile 0 1 etanamina.xyz
|  4> 
|  5>                          ****END OF INPUT****
================================================================================

                       ****************************
                       * Single Point Calculation *
                       ****************************

---------------------------------
CARTESIAN COORDINATES (ANGSTROEM)
---------------------------------
  C     -4.713560   -0.418810    0.019530
  C     -3.796290    0.790000   -0.054830
  H     -5.697600   -0.122840    0.396940
  H     -4.309710   -1.182170    0.693060
  H     -4.853330   -0.871820   -0.967740
  N     -2.477980    0.420770   -0.555330
  H     -3.691820    1.239420    0.938010
  H     -4.232390    1.548020   -0.713490
  H     -2.570090   -0.009710   -1.474880
  H     -2.071810   -0.294150    0.047390

----------------------------
CARTESIAN COORDINATES (A.U.)
----------------------------
  NO LB      ZA    FRAG     MASS         X           Y           Z
   0 C     6.0000    0    12.011   -8.907338   -0.791436    0.036906
   1 C     6.0000    0    12.011   -7.173948    1.492884   -0.103614
   2 H     1.0000    0     1.008  -10.766904   -0.232134    0.750108
   3 H     1.0000    0     1.008   -8.144172   -2.233978    1.309694
   4 H     1.0000    0     1.008   -9.171465   -1.647501   -1.828764
   5 N     7.0000    0    14.007   -4.682704    0.795140   -1.049422
   6 H     1.0000    0     1.008   -6.976529    2.342164    1.772582
   7 H     1.0000    0     1.008   -7.998058    2.925334   -1.348301
   8 H     1.0000    0     1.008   -4.856766   -0.018349   -2.787119
   9 H     1.0000    0     1.008   -3.915154   -0.555863    0.089554

--------------------------------
INTERNAL COORDINATES (ANGSTROEM)
--------------------------------
 C      0   0   0     0.000000000000     0.00000000     0.00000000
 C      1   0   0     1.519254843204     0.00000000     0.00000000
 H      1   2   0     1.094701452726   110.15034594     0.00000000
 H      1   2   3     1.095196773644   111.22587225   240.37265077
 H      1   2   3     1.095196679095   111.22569117   119.62751207
 N      2   1   3     1.457659870820   111.18047390   179.99938863
 H      2   1   3     1.094816689177   109.86731838    58.98552237
 H      2   1   3     1.094810726107   109.86727226   301.01371723
 H      6   2   1     1.019494720438   109.56908968    57.86105775
 H      6   2   1     1.019488142991   109.56984113   302.13826451

---------------------------
INTERNAL COORDINATES (A.U.)
---------------------------
 C      0   0   0     0.000000000000     0.00000000     0.00000000
 C      1   0   0     2.870975581290     0.00000000     0.00000000
 H      1   2   0     2.068685944058   110.15034594     0.00000000
 H      1   2   3     2.069621964941   111.22587225   240.37265077
 H      1   2   3     2.069621786269   111.22569117   119.62751207
 N      2   1   3     2.754577952257   111.18047390   179.99938863
 H      2   1   3     2.068903709390   109.86731838    58.98552237
 H      2   1   3     2.068892440823   109.86727226   301.01371723
 H      6   2   1     1.926565816606   109.56908968    57.86105775
 H      6   2   1     1.926553387034   109.56984113   302.13826451

---------------------
BASIS SET INFORMATION
---------------------
There are 3 groups of distinct atoms

 Group   1 Type C   : 10s4p1d contracted to 3s2p1d pattern {631/31/1}
 Group   2 Type H   : 4s1p contracted to 2s1p pattern {31/1}
 Group   3 Type N   : 10s4p1d contracted to 3s2p1d pattern {631/31/1}

Atom   0C    basis set group =>   1
Atom   1C    basis set group =>   1
Atom   2H    basis set group =>   2
Atom   3H    basis set group =>   2
Atom   4H    basis set group =>   2
Atom   5N    basis set group =>   3
Atom   6H    basis set group =>   2
Atom   7H    basis set group =>   2
Atom   8H    basis set group =>   2
Atom   9H    basis set group =>   2
------------------------------------------------------------------------------
                           ORCA GTO INTEGRAL CALCULATION
------------------------------------------------------------------------------

                         BASIS SET STATISTICS AND STARTUP INFO

 # of primitive gaussian shells          ...   80
 # of primitive gaussian functions       ...  130
 # of contracted shells                  ...   39
 # of contracted basis functions         ...   77
 Highest angular momentum                ...    2
 Maximum contraction depth               ...    6
 Integral package used                   ... LIBINT
 Integral threshhold            Thresh   ...  1.000e-10
 Primitive cut-off              TCut     ...  1.000e-11


------------------------------ INTEGRAL EVALUATION ----------------------------


 * One electron integrals 
 Pre-screening matrix                    ... done
 Shell pair data                         ... done (   0.001 sec)

-------------------------------------------------------------------------------
                                 ORCA SCF
-------------------------------------------------------------------------------

------------
SCF SETTINGS
------------
Hamiltonian:
 Density Functional     Method          .... DFT(GTOs)
 Exchange Functional    Exchange        .... B88
   X-Alpha parameter    XAlpha          ....  0.666667
   Becke's b parameter  XBeta           ....  0.004200
 Correlation Functional Correlation     .... LYP
 LDA part of GGA corr.  LDAOpt          .... VWN-5
 Gradients option       PostSCFGGA      .... off
 Hybrid DFT is turned on
   Fraction HF Exchange ScalHFX         ....  0.200000
   Scaling of DF-GGA-X  ScalDFX         ....  0.720000
   Scaling of DF-GGA-C  ScalDFC         ....  0.810000
   Scaling of DF-LDA-C  ScalLDAC        ....  1.000000
   Perturbative correction              ....  0.000000
   NL short-range parameter             ....  4.800000


General Settings:
 Integral files         IntName         .... etanamina
 Hartree-Fock type      HFTyp           .... RHF
 Total Charge           Charge          ....    0
 Multiplicity           Mult            ....    1
 Number of Electrons    NEL             ....   26
 Basis Dimension        Dim             ....   77
 Nuclear Repulsion      ENuc            ....     83.3803223458 Eh

Convergence Acceleration:
 DIIS                   CNVDIIS         .... on
   Start iteration      DIISMaxIt       ....    12
   Startup error        DIISStart       ....  0.200000
   # of expansion vecs  DIISMaxEq       ....     5
   Bias factor          DIISBfac        ....   1.050
   Max. coefficient     DIISMaxC        ....  10.000
 Newton-Raphson         CNVNR           .... off
 SOSCF                  CNVSOSCF        .... on
   Start iteration      SOSCFMaxIt      ....   150
   Startup grad/error   SOSCFStart      ....  0.003300
 Level Shifting         CNVShift        .... on
   Level shift para.    LevelShift      ....    0.2500
   Turn off err/grad.   ShiftErr        ....    0.0010
 Zerner damping         CNVZerner       .... off
 Static damping         CNVDamp         .... on
   Fraction old density DampFac         ....    0.7000
   Max. Damping (<1)    DampMax         ....    0.9800
   Min. Damping (>=0)   DampMin         ....    0.0000
   Turn off err/grad.   DampErr         ....    0.1000
 Fernandez-Rico         CNVRico         .... off

SCF Procedure:
 Maximum # iterations   MaxIter         ....   125
 SCF integral mode      SCFMode         .... Direct
   Integral package                     .... LIBINT
 Reset frequeny         DirectResetFreq ....    20
 Integral Threshold     Thresh          ....  1.000e-10 Eh
 Primitive CutOff       TCut            ....  1.000e-11 Eh

Convergence Tolerance:
 Convergence Check Mode ConvCheckMode   .... Total+1el-Energy
 Convergence forced     ConvForced      .... 0
 Energy Change          TolE            ....  1.000e-06 Eh
 1-El. energy change                    ....  1.000e-03 Eh
 Orbital Gradient       TolG            ....  5.000e-05
 Orbital Rotation angle TolX            ....  5.000e-05
 DIIS Error             TolErr          ....  1.000e-06


Diagonalization of the overlap matrix:
Smallest eigenvalue                        ... 6.496e-03
Time for diagonalization                   ...    0.142 sec
Threshold for overlap eigenvalues          ... 1.000e-08
Number of eigenvalues below threshold      ... 0
Time for construction of square roots      ...    0.013 sec
Total time needed                          ...    0.155 sec

-------------------
DFT GRID GENERATION
-------------------

General Integration Accuracy     IntAcc      ...  4.340
Radial Grid Type                 RadialGrid  ... Gauss-Chebyshev
Angular Grid (max. acc.)         AngularGrid ... Lebedev-110
Angular grid pruning method      GridPruning ... 3 (G Style)
Weight generation scheme         WeightScheme... Becke
Basis function cutoff            BFCut       ...    1.0000e-10
Integration weight cutoff        WCut        ...    1.0000e-14
Grids for H and He will be reduced by one unit

# of grid points (after initial pruning)     ...  10572 (   0.0 sec)
# of grid points (after weights+screening)   ...  10066 (   0.0 sec)
nearest neighbour list constructed           ...    0.0 sec
Grid point re-assignment to atoms done       ...    0.0 sec
Grid point division into batches done        ...    0.0 sec
Reduced shell lists constructed in    0.1 sec

Total number of grid points                  ...    10066
Total number of batches                      ...      164
Average number of points per batch           ...       61
Average number of grid points per atom       ...     1007
Average number of shells per batch           ...    32.49 (83.31%)
Average number of basis functions per batch  ...    63.74 (82.78%)
Average number of large shells per batch     ...    26.86 (82.67%)
Average number of large basis fcns per batch ...    52.39 (82.19%)
Maximum spatial batch extension              ...  22.44, 25.60, 19.36 au
Average spatial batch extension              ...   4.08,  4.27,  3.64 au

Time for grid setup =    0.219 sec

------------------------------
INITIAL GUESS: MODEL POTENTIAL
------------------------------
Loading Hartree-Fock densities                     ... done
Calculating cut-offs                               ... done
Setting up the integral package                    ... done
Initializing the effective Hamiltonian             ... done
Starting the Coulomb interaction                   ... done (   0.1 sec)
Reading the grid                                   ... done
Mapping shells                                     ... done
Starting the XC term evaluation                    ... done (   0.2 sec)
  promolecular density results
     # of electrons  =     25.995300786
     EX              =    -18.928669909
     EC              =     -0.825270084
     EX+EC           =    -19.753939993
Transforming the Hamiltonian                       ... done (   0.0 sec)
Diagonalizing the Hamiltonian                      ... done (   0.0 sec)
Back transforming the eigenvectors                 ... done (   0.0 sec)
Now organizing SCF variables                       ... done
                      ------------------
                      INITIAL GUESS DONE (   0.6 sec)
                      ------------------
--------------
SCF ITERATIONS
--------------
ITER       Energy         Delta-E        Max-DP      RMS-DP      [F,P]     Damp
               ***  Starting incremental Fock matrix formation  ***
  0   -134.9170504785   0.000000000000 0.08806876  0.00372651  0.2558609 0.7000
  1   -134.9964708026  -0.079420324179 0.05453253  0.00269869  0.1173689 0.7000
                               ***Turning on DIIS***
  2   -135.0273088645  -0.030838061844 0.07085085  0.00435442  0.0384558 0.0000
  3   -135.0716525455  -0.044343680979 0.03706823  0.00176495  0.0683626 0.0000
  4   -135.0841945614  -0.012542015898 0.01069989  0.00051956  0.0134422 0.0000
  5   -135.0848083064  -0.000613745028 0.00342536  0.00019227  0.0051407 0.0000
                      *** Initiating the SOSCF procedure ***
                           *** Shutting down DIIS ***
                      *** Re-Reading the Fockian *** 
                      *** Removing any level shift *** 
ITER      Energy       Delta-E        Grad      Rot      Max-DP    RMS-DP
  6   -135.08486085  -0.0000525432  0.000335  0.000335  0.002177  0.000104
               *** Restarting incremental Fock matrix formation ***
  7   -135.08486520  -0.0000043537  0.000073  0.000138  0.000282  0.000014
  8   -135.08486517   0.0000000366  0.000096  0.000082  0.000157  0.000008
                 **** Energy Check signals convergence ****
              ***Rediagonalizing the Fockian in SOSCF/NRSCF***

               *****************************************************
               *                     SUCCESS                       *
               *           SCF CONVERGED AFTER   9 CYCLES          *
               *****************************************************

Setting up the final grid:

General Integration Accuracy     IntAcc      ...  4.670
Radial Grid Type                 RadialGrid  ... Gauss-Chebyshev
Angular Grid (max. acc.)         AngularGrid ... Lebedev-302
Angular grid pruning method      GridPruning ... 3 (G Style)
Weight generation scheme         WeightScheme... Becke
Basis function cutoff            BFCut       ...    1.0000e-10
Integration weight cutoff        WCut        ...    1.0000e-14
Grids for H and He will be reduced by one unit

# of grid points (after initial pruning)     ...  42394 (   0.0 sec)
# of grid points (after weights+screening)   ...  39902 (   0.1 sec)
nearest neighbour list constructed           ...    0.0 sec
Grid point re-assignment to atoms done       ...    0.0 sec
Grid point division into batches done        ...    0.2 sec
Reduced shell lists constructed in    0.7 sec

Total number of grid points                  ...    39902
Total number of batches                      ...      630
Average number of points per batch           ...       63
Average number of grid points per atom       ...     3990
Average number of shells per batch           ...    29.77 (76.32%)
Average number of basis functions per batch  ...    58.18 (75.56%)
Average number of large shells per batch     ...    24.12 (81.03%)
Average number of large basis fcns per batch ...    46.52 (79.96%)
Maximum spatial batch extension              ...  18.76, 17.32, 20.92 au
Average spatial batch extension              ...   2.74,  2.73,  2.72 au

Final grid set up in    0.8 sec
Final integration                            ... done (   0.7 sec)
Change in XC energy                          ...     0.000059976
Integrated number of electrons               ...    25.999897216
Previous integrated no of electrons          ...    25.999851398

----------------
TOTAL SCF ENERGY
----------------

Total Energy       :         -135.08480537 Eh           -3675.84443 eV

Components:
Nuclear Repulsion  :           83.38032235 Eh            2268.89392 eV
Electronic Energy  :         -218.46512772 Eh           -5944.73835 eV
One Electron Energy:         -346.17974778 Eh           -9420.02984 eV
Two Electron Energy:          127.71462007 Eh            3475.29149 eV

Virial components:
Potential Energy   :         -269.31984350 Eh           -7328.56552 eV
Kinetic Energy     :          134.23503813 Eh            3652.72109 eV
Virial Ratio       :            2.00633044


DFT components:
N(Alpha)           :       12.999948607772 electrons
N(Beta)            :       12.999948607772 electrons
N(Total)           :       25.999897215543 electrons
E(X)               :      -15.451629472101 Eh       
E(C)               :       -0.984138862281 Eh       
E(XC)              :      -16.435768334382 Eh       

---------------
SCF CONVERGENCE
---------------

  Last Energy change         ...   -1.7911e-07  Tolerance :   1.0000e-06
  Last MAX-Density change    ...    1.2033e-05  Tolerance :   1.0000e-05
  Last RMS-Density change    ...    7.4798e-07  Tolerance :   1.0000e-06
  Last Orbital Gradient      ...    3.0523e-06  Tolerance :   5.0000e-05
  Last Orbital Rotation      ...    1.0002e-05  Tolerance :   5.0000e-05

             **** THE GBW FILE WAS UPDATED (etanamina.gbw) ****
             **** DENSITY FILE WAS UPDATED (etanamina.scfp.tmp) ****
             **** ENERGY FILE WAS UPDATED (etanamina.en.tmp) ****
----------------
ORBITAL ENERGIES
----------------

  NO   OCC          E(Eh)            E(eV) 
   0   2.0000     -14.296830      -389.0365 
   1   2.0000     -10.194074      -277.3949 
   2   2.0000     -10.163201      -276.5547 
   3   2.0000      -0.872213       -23.7341 
   4   2.0000      -0.719614       -19.5817 
   5   2.0000      -0.601872       -16.3778 
   6   2.0000      -0.489117       -13.3095 
   7   2.0000      -0.431372       -11.7382 
   8   2.0000      -0.403012       -10.9665 
   9   2.0000      -0.395408       -10.7596 
  10   2.0000      -0.356928        -9.7125 
  11   2.0000      -0.335071        -9.1178 
  12   2.0000      -0.221244        -6.0204 
  13   0.0000       0.086172         2.3449 
  14   0.0000       0.137419         3.7394 
  15   0.0000       0.138024         3.7558 
  16   0.0000       0.157169         4.2768 
  17   0.0000       0.176884         4.8133 
  18   0.0000       0.194484         5.2922 
  19   0.0000       0.197773         5.3817 
  20   0.0000       0.242477         6.5981 
  21   0.0000       0.270639         7.3645 
  22   0.0000       0.533733        14.5236 
  23   0.0000       0.554527        15.0895 
  24   0.0000       0.557491        15.1701 
  25   0.0000       0.582929        15.8623 
  26   0.0000       0.633974        17.2513 
  27   0.0000       0.672020        18.2866 
  28   0.0000       0.738672        20.1003 
  29   0.0000       0.779259        21.2047 
  30   0.0000       0.824805        22.4441 
  31   0.0000       0.863036        23.4844 
  32   0.0000       0.877105        23.8672 
  33   0.0000       0.895735        24.3742 
  34   0.0000       0.897038        24.4097 
  35   0.0000       0.936461        25.4824 
  36   0.0000       0.970256        26.4020 
  37   0.0000       0.970902        26.4196 
  38   0.0000       1.038027        28.2461 
  39   0.0000       1.306418        35.5494 
  40   0.0000       1.341709        36.5098 
  41   0.0000       1.430012        38.9126 
  42   0.0000       1.481132        40.3036 
  43   0.0000       1.591000        43.2933 
  44   0.0000       1.674218        45.5578 
  45   0.0000       1.730532        47.0902 
  46   0.0000       1.868506        50.8446 
  47   0.0000       1.941737        52.8374 
  48   0.0000       1.975463        53.7551 
  49   0.0000       2.051762        55.8313 
  50   0.0000       2.064386        56.1748 
  51   0.0000       2.064730        56.1842 
  52   0.0000       2.090603        56.8882 
  53   0.0000       2.151538        58.5463 
  54   0.0000       2.232721        60.7554 
  55   0.0000       2.266721        61.6806 
  56   0.0000       2.288809        62.2817 
  57   0.0000       2.300080        62.5884 
  58   0.0000       2.367296        64.4174 
  59   0.0000       2.430226        66.1298 
  60   0.0000       2.494485        67.8784 
  61   0.0000       2.570453        69.9456 
  62   0.0000       2.677966        72.8712 
  63   0.0000       2.703935        73.5778 
  64   0.0000       2.738826        74.5273 
  65   0.0000       2.818306        76.6900 
  66   0.0000       2.835156        77.1485 
  67   0.0000       2.931024        79.7572 
  68   0.0000       2.943885        80.1072 
  69   0.0000       2.987464        81.2930 
  70   0.0000       3.188749        86.7703 
  71   0.0000       3.299625        89.7874 
  72   0.0000       3.327847        90.5553 
  73   0.0000       3.335215        90.7558 
  74   0.0000       3.480510        94.7095 
  75   0.0000       3.502579        95.3100 
  76   0.0000       3.591018        97.7166 

                    ********************************
                    * MULLIKEN POPULATION ANALYSIS *
                    ********************************

-----------------------
MULLIKEN ATOMIC CHARGES
-----------------------
   0 C :   -0.308980
   1 C :   -0.060922
   2 H :    0.090751
   3 H :    0.095934
   4 H :    0.093590
   5 N :   -0.570387
   6 H :    0.101044
   7 H :    0.103146
   8 H :    0.227593
   9 H :    0.228230
Sum of atomic charges:   -0.0000000

--------------------------------
MULLIKEN REDUCED ORBITAL CHARGES
--------------------------------
  0 C s       :     3.238278  s :     3.238278
      pz      :     1.033160  p :     3.038995
      px      :     1.016281
      py      :     0.989554
      dz2     :     0.005523  d :     0.031707
      dxz     :     0.004101
      dyz     :     0.009162
      dx2y2   :     0.006195
      dxy     :     0.006726
  1 C s       :     3.182007  s :     3.182007
      pz      :     1.033432  p :     2.825113
      px      :     0.840434
      py      :     0.951247
      dz2     :     0.008681  d :     0.053802
      dxz     :     0.008386
      dyz     :     0.010447
      dx2y2   :     0.011264
      dxy     :     0.015025
  2 H s       :     0.897934  s :     0.897934
      pz      :     0.002854  p :     0.011316
      px      :     0.005905
      py      :     0.002557
  3 H s       :     0.892823  s :     0.892823
      pz      :     0.003984  p :     0.011242
      px      :     0.002813
      py      :     0.004445
  4 H s       :     0.895145  s :     0.895145
      pz      :     0.005768  p :     0.011265
      px      :     0.002439
      py      :     0.003058
  5 N s       :     3.583968  s :     3.583968
      pz      :     1.126927  p :     3.956713
      px      :     1.332524
      py      :     1.497262
      dz2     :     0.003812  d :     0.029706
      dxz     :     0.004201
      dyz     :     0.010441
      dx2y2   :     0.007312
      dxy     :     0.003940
  6 H s       :     0.888250  s :     0.888250
      pz      :     0.005939  p :     0.010706
      px      :     0.001644
      py      :     0.003124
  7 H s       :     0.886165  s :     0.886165
      pz      :     0.003695  p :     0.010689
      px      :     0.002445
      py      :     0.004549
  8 H s       :     0.748836  s :     0.748836
      pz      :     0.010929  p :     0.023571
      px      :     0.005292
      py      :     0.007349
  9 H s       :     0.748203  s :     0.748203
      pz      :     0.007054  p :     0.023567
      px      :     0.007225
      py      :     0.009287


                     *******************************
                     * LOEWDIN POPULATION ANALYSIS *
                     *******************************

----------------------
LOEWDIN ATOMIC CHARGES
----------------------
   0 C :   -0.216420
   1 C :   -0.069639
   2 H :    0.065477
   3 H :    0.064113
   4 H :    0.063556
   5 N :   -0.277243
   6 H :    0.065402
   7 H :    0.065828
   8 H :    0.119375
   9 H :    0.119550

-------------------------------
LOEWDIN REDUCED ORBITAL CHARGES
-------------------------------
  0 C s       :     2.926685  s :     2.926685
      pz      :     1.086330  p :     3.224266
      px      :     1.072658
      py      :     1.065278
      dz2     :     0.011494  d :     0.065469
      dxz     :     0.007924
      dyz     :     0.017837
      dx2y2   :     0.012627
      dxy     :     0.015586
  1 C s       :     2.883655  s :     2.883655
      pz      :     1.071608  p :     3.070396
      px      :     0.956855
      py      :     1.041933
      dz2     :     0.018168  d :     0.115588
      dxz     :     0.017050
      dyz     :     0.020512
      dx2y2   :     0.023775
      dxy     :     0.036085
  2 H s       :     0.895881  s :     0.895881
      pz      :     0.008810  p :     0.038642
      px      :     0.021867
      py      :     0.007965
  3 H s       :     0.897649  s :     0.897649
      pz      :     0.013427  p :     0.038238
      px      :     0.009002
      py      :     0.015809
  4 H s       :     0.898210  s :     0.898210
      pz      :     0.021113  p :     0.038234
      px      :     0.007074
      py      :     0.010047
  5 N s       :     3.202340  s :     3.202340
      pz      :     1.162136  p :     4.017012
      px      :     1.357012
      py      :     1.497864
      dz2     :     0.009777  d :     0.057891
      dxz     :     0.010475
      dyz     :     0.017043
      dx2y2   :     0.012677
      dxy     :     0.007920
  6 H s       :     0.897523  s :     0.897523
      pz      :     0.021690  p :     0.037075
      px      :     0.005426
      py      :     0.009959
  7 H s       :     0.897084  s :     0.897084
      pz      :     0.013062  p :     0.037088
      px      :     0.008155
      py      :     0.015871
  8 H s       :     0.803564  s :     0.803564
      pz      :     0.037579  p :     0.077061
      px      :     0.015910
      py      :     0.023572
  9 H s       :     0.803397  s :     0.803397
      pz      :     0.021946  p :     0.077053
      px      :     0.022399
      py      :     0.032708


                      *****************************
                      * MAYER POPULATION ANALYSIS *
                      *****************************

  NA   - Mulliken gross atomic population
  ZA   - Total nuclear charge
  QA   - Mulliken gross atomic charge
  VA   - Mayer's total valence
  BVA  - Mayer's bonded valence
  FA   - Mayer's free valence

  ATOM       NA         ZA         QA         VA         BVA        FA
  0 C      6.3090     6.0000    -0.3090     3.8765     3.8765     0.0000
  1 C      6.0609     6.0000    -0.0609     3.9292     3.9292     0.0000
  2 H      0.9092     1.0000     0.0908     0.9572     0.9572    -0.0000
  3 H      0.9041     1.0000     0.0959     0.9597     0.9597     0.0000
  4 H      0.9064     1.0000     0.0936     0.9600     0.9600     0.0000
  5 N      7.5704     7.0000    -0.5704     2.8708     2.8708    -0.0000
  6 H      0.8990     1.0000     0.1010     0.9496     0.9496    -0.0000
  7 H      0.8969     1.0000     0.1031     0.9492     0.9492    -0.0000
  8 H      0.7724     1.0000     0.2276     0.9251     0.9251     0.0000
  9 H      0.7718     1.0000     0.2282     0.9249     0.9249    -0.0000

  Mayer bond orders larger than 0.1
B(  0-C ,  1-C ) :   1.0052 B(  0-C ,  2-H ) :   0.9560 B(  0-C ,  3-H ) :   0.9668 
B(  0-C ,  4-H ) :   0.9666 B(  1-C ,  5-N ) :   1.0238 B(  1-C ,  6-H ) :   0.9586 
B(  1-C ,  7-H ) :   0.9589 B(  5-N ,  8-H ) :   0.9178 B(  5-N ,  9-H ) :   0.9180 


-------
TIMINGS
-------

Total SCF time: 0 days 0 hours 0 min 16 sec 

Total time                  ....      16.221 sec
Sum of individual times     ....      15.122 sec  ( 93.2%)

Fock matrix formation       ....      13.586 sec  ( 83.8%)
  XC integration            ....       2.384 sec  ( 17.5% of F)
    Basis function eval.    ....       1.046 sec  ( 43.9% of XC)
    Density eval.           ....       0.493 sec  ( 20.7% of XC)
    XC-Functional eval.     ....       0.280 sec  ( 11.7% of XC)
    XC-Potential eval.      ....       0.493 sec  ( 20.7% of XC)
Diagonalization             ....       0.027 sec  (  0.2%)
Density matrix formation    ....       0.001 sec  (  0.0%)
Population analysis         ....       0.021 sec  (  0.1%)
Initial guess               ....       0.408 sec  (  2.5%)
Orbital Transformation      ....       0.000 sec  (  0.0%)
Orbital Orthonormalization  ....       0.000 sec  (  0.0%)
DIIS solution               ....       0.026 sec  (  0.2%)
SOSCF solution              ....       0.011 sec  (  0.1%)
Grid generation             ....       1.042 sec  (  6.4%)

-------------------------   --------------------
FINAL SINGLE POINT ENERGY      -135.084805370079
-------------------------   --------------------


                            ***************************************
                            *     ORCA property calculations      *
                            ***************************************

                                    ---------------------
                                    Active property flags
                                    ---------------------
   (+) Dipole Moment


------------------------------------------------------------------------------
                       ORCA ELECTRIC PROPERTIES CALCULATION
------------------------------------------------------------------------------

Dipole Moment Calculation                       ... on
Quadrupole Moment Calculation                   ... off
Polarizability Calculation                      ... off
GBWName                                         ... etanamina.gbw
Electron density file                           ... etanamina.scfp.tmp
The origin for moment calculation is the CENTER OF MASS  = (-6.897785,  0.446865 -0.389466)

-------------
DIPOLE MOMENT
-------------
                                X             Y             Z
Electronic contribution:      1.46179       0.81003      -0.32585
Nuclear contribution   :     -1.75328      -1.26416       0.33766
                        -----------------------------------------
Total Dipole Moment    :     -0.29149      -0.45413       0.01181
                        -----------------------------------------
Magnitude (a.u.)       :      0.53976
Magnitude (Debye)      :      1.37195


-------------------------------------------------------------------------------
                               ORCA SCF HESSIAN
-------------------------------------------------------------------------------

Hessian of the Kohn-Sham DFT energy:
Kohn-Sham wavefunction type                      ... RKS
Hartree-Fock exchange scaling                    ...    0.200
Number of operators                              ...    1
Number of atoms                                  ...   10
Basis set dimensions                             ...   77
Integral neglect threshold                       ... 1.0e-10
Integral primitive cutoff                        ... 1.0e-11

Setting up DFT Hessian calculations              ... 
Electron density on the grid                     ... found on disk
Electron density on the final grid               ... found on disk
Building xc-kernel on the grid                   ... done   (      0.0 sec)
Building xc-kernel on the final grid             ... done   (      0.1 sec)
                                                     done   (      0.2 sec)

Nuclear repulsion Hessian                        ... done   (      0.0 sec)

----------------------------------------------
Forming right-hand sides of CP-SCF equations     ...
----------------------------------------------
One electron integral derivatives                ... done   (      0.2 sec)
Transforming the overlap derivative matrices     ... done   (      0.0 sec)
Making the Q(x) pseudodensities                  ... done   (      0.0 sec)
Adding the E*S(x)*S(y) terms to the Hessian      ... done   (      0.0 sec)
Calculating energy weighted overlap derivatives  ... done   (      0.0 sec)
Two electron integral derivatives                ... done   (      4.7 sec)
Exchange-correlation integral derivatives        ... done   (     21.3 sec)
tr(F(y)Q(x)) contribution to the Hessian         ... done   (      0.0 sec)
Response fock operator R(S(x))                   ... done   (      9.3 sec)
XC Response fock operator R(S(x))                ... done   (      7.9 sec)
tr(F(y)S(x)) contribution to the Hessian         ... done   (      0.0 sec)
Transforming and finalizing RHSs                 ... done   (      0.0 sec)

----------------------------------------------
Solving the CP-SCF equations                     ...
----------------------------------------------
     CP-SCF ITERATION   0: 
     CP-SCF ITERATION   1:      0.000393637339
     CP-SCF ITERATION   2:      0.000021845453
     CP-SCF ITERATION   3:      0.000003091093
     CP-SCF ITERATION   4:      0.000000984106

                                                 ... done   (     83.4 sec)
Forming perturbed density Hessian contributions  ... done   (      0.0 sec)
Making the perturbed densities                   ... done   (      0.0 sec)
2nd integral derivative contribs                 ... done   (     32.5 sec)
Exchange-correlation Hessian                     ... done   (     27.9 sec)
Dipol derivatives                                ... done   (      0.6 sec)

Total SCF Hessian time: 0 days 0 hours 3 min 8 sec 

Writing the Hessian file to the disk             ... done


-----------------------
VIBRATIONAL FREQUENCIES
-----------------------

   0:         0.00 cm**-1
   1:         0.00 cm**-1
   2:         0.00 cm**-1
   3:         0.00 cm**-1
   4:         0.00 cm**-1
   5:         0.00 cm**-1
   6:       267.29 cm**-1
   7:       312.69 cm**-1
   8:       426.32 cm**-1
   9:       790.69 cm**-1
  10:       889.93 cm**-1
  11:       925.36 cm**-1
  12:      1012.26 cm**-1
  13:      1087.02 cm**-1
  14:      1161.25 cm**-1
  15:      1278.33 cm**-1
  16:      1378.62 cm**-1
  17:      1389.09 cm**-1
  18:      1422.87 cm**-1
  19:      1494.71 cm**-1
  20:      1510.14 cm**-1
  21:      1515.05 cm**-1
  22:      1676.16 cm**-1
  23:      3038.40 cm**-1
  24:      3057.94 cm**-1
  25:      3094.76 cm**-1
  26:      3112.65 cm**-1
  27:      3122.23 cm**-1
  28:      3463.85 cm**-1
  29:      3545.11 cm**-1


------------
NORMAL MODES
------------

These modes are the cartesian displacements weighted by the diagonal matrix
M(i,i)=1/sqrt(m[i]) where m[i] is the mass of the displaced atom
Thus, these vectors are normalized but *not* orthogonal

                  0          1          2          3          4          5    
      0       0.000000   0.000000   0.000000   0.000000   0.000000   0.000000
      1       0.000000   0.000000   0.000000   0.000000   0.000000   0.000000
      2       0.000000   0.000000   0.000000   0.000000   0.000000   0.000000
      3       0.000000   0.000000   0.000000   0.000000   0.000000   0.000000
      4       0.000000   0.000000   0.000000   0.000000   0.000000   0.000000
      5       0.000000   0.000000   0.000000   0.000000   0.000000   0.000000
      6       0.000000   0.000000   0.000000   0.000000   0.000000   0.000000
      7       0.000000   0.000000   0.000000   0.000000   0.000000   0.000000
      8       0.000000   0.000000   0.000000   0.000000   0.000000   0.000000
      9       0.000000   0.000000   0.000000   0.000000   0.000000   0.000000
     10       0.000000   0.000000   0.000000   0.000000   0.000000   0.000000
     11       0.000000   0.000000   0.000000   0.000000   0.000000   0.000000
     12       0.000000   0.000000   0.000000   0.000000   0.000000   0.000000
     13       0.000000   0.000000   0.000000   0.000000   0.000000   0.000000
     14       0.000000   0.000000   0.000000   0.000000   0.000000   0.000000
     15       0.000000   0.000000   0.000000   0.000000   0.000000   0.000000
     16       0.000000   0.000000   0.000000   0.000000   0.000000   0.000000
     17       0.000000   0.000000   0.000000   0.000000   0.000000   0.000000
     18       0.000000   0.000000   0.000000   0.000000   0.000000   0.000000
     19       0.000000   0.000000   0.000000   0.000000   0.000000   0.000000
     20       0.000000   0.000000   0.000000   0.000000   0.000000   0.000000
     21       0.000000   0.000000   0.000000   0.000000   0.000000   0.000000
     22       0.000000   0.000000   0.000000   0.000000   0.000000   0.000000
     23       0.000000   0.000000   0.000000   0.000000   0.000000   0.000000
     24       0.000000   0.000000   0.000000   0.000000   0.000000   0.000000
     25       0.000000   0.000000   0.000000   0.000000   0.000000   0.000000
     26       0.000000   0.000000   0.000000   0.000000   0.000000   0.000000
     27       0.000000   0.000000   0.000000   0.000000   0.000000   0.000000
     28       0.000000   0.000000   0.000000   0.000000   0.000000   0.000000
     29       0.000000   0.000000   0.000000   0.000000   0.000000   0.000000
                  6          7          8          9         10         11    
      0      -0.003375  -0.009915  -0.170844   0.010952   0.036426   0.176735
      1       0.001996   0.005444  -0.022250  -0.006246   0.067302   0.058385
      2      -0.010565  -0.029579   0.051867   0.032910   0.000680  -0.047010
      3      -0.013373   0.020108   0.042371   0.023011   0.018610   0.006759
      4       0.007718  -0.011559  -0.158610  -0.013013  -0.051833  -0.120642
      5      -0.040776   0.061180  -0.043726   0.070298  -0.015474  -0.024918
      6       0.159429  -0.076131  -0.041318  -0.052445   0.009110   0.375205
      7      -0.091391   0.043827   0.378548   0.030570  -0.016859   0.681264
      8       0.487516  -0.232290   0.085455  -0.161301  -0.006709   0.005162
      9       0.275650  -0.152579  -0.406436  -0.249908   0.139744  -0.180441
     10      -0.188523   0.008087  -0.080730  -0.310194   0.091760   0.010467
     11      -0.395068   0.057491   0.126698  -0.159566  -0.037942   0.108715
     12      -0.429431   0.154756  -0.412809   0.143554   0.145823  -0.207906
     13       0.276607  -0.010466  -0.076524   0.369344   0.090690   0.025174
     14      -0.077127  -0.046809   0.111099  -0.161113  -0.022542   0.025549
     15       0.008711  -0.021062   0.124444  -0.003532  -0.154814  -0.098900
     16      -0.005031   0.012413   0.129377   0.002228  -0.078137   0.035317
     17       0.026754  -0.065127  -0.016366  -0.011270   0.035955   0.039026
     18      -0.033461   0.111430  -0.005551  -0.071859   0.074938  -0.167984
     19       0.044357  -0.116450  -0.150618   0.492657  -0.010592  -0.171601
     20      -0.056132   0.096264  -0.040252  -0.153833  -0.036131   0.020053
     21      -0.009729  -0.023049   0.002219  -0.083291   0.080183  -0.166213
     22      -0.019505   0.065683  -0.155656  -0.404770  -0.015713  -0.171308
     23      -0.075875   0.174427  -0.016831  -0.318063  -0.020651   0.025978
     24       0.037773  -0.165741   0.329494  -0.159356   0.485437  -0.223157
     25      -0.260412  -0.571304   0.224001   0.033936   0.401202  -0.066714
     26       0.142747   0.221614  -0.079222  -0.009713  -0.211295   0.092657
     27       0.078297   0.322535   0.335996   0.117694   0.560247  -0.241651
     28       0.193030   0.480993   0.218242  -0.013024   0.360963  -0.056208
     29       0.213919   0.257744  -0.056539  -0.109604   0.011935   0.036649
                 12         13         14         15         16         17    
      0       0.021787   0.034950  -0.073474   0.038234   0.028646  -0.002853
      1      -0.012379   0.208730   0.091087  -0.021467  -0.051350   0.000626
      2       0.066280   0.027518   0.041270   0.116217  -0.018624  -0.011353
      3      -0.018056  -0.254202   0.126757  -0.039704  -0.148239  -0.027573
      4       0.010455  -0.161995  -0.178879   0.022405  -0.045507   0.012362
      5      -0.055356   0.053160  -0.075011  -0.120248   0.042467  -0.071487
      6      -0.045403  -0.068001  -0.204483  -0.066437   0.116573  -0.017464
      7       0.025769  -0.131840  -0.366128   0.037392   0.216329   0.017288
      8      -0.138867  -0.002839  -0.002569  -0.203056   0.004622  -0.062421
      9      -0.195347   0.351779   0.304640  -0.156904   0.018237   0.065205
     10      -0.250060   0.291865   0.115746  -0.303460   0.097546   0.042082
     11      -0.077852  -0.077667  -0.146495  -0.098163   0.138664  -0.016633
     12       0.140492   0.361452   0.343792   0.103242  -0.049721  -0.069603
     13       0.280380   0.286346   0.094179   0.332374   0.141416  -0.032765
     14      -0.088171  -0.047895  -0.026833  -0.063372  -0.083416   0.006324
     15      -0.004761   0.170334  -0.077308   0.010156   0.008276   0.027894
     16       0.002601  -0.025188   0.117209  -0.005799   0.023471  -0.015218
     17      -0.014239  -0.060573   0.047235   0.030512  -0.001158   0.084363
     18       0.392934  -0.322379   0.303240  -0.321761   0.557187   0.527337
     19      -0.095430  -0.204782  -0.108165  -0.377671   0.247538   0.023335
     20      -0.049510   0.073288  -0.129217   0.092988  -0.167061  -0.143953
     21      -0.337665  -0.326991   0.308646   0.355310   0.603579  -0.483424
     22       0.063949  -0.204090  -0.111211   0.359366   0.238546  -0.018350
     23       0.219489   0.062565  -0.112014   0.009644  -0.123671   0.181324
     24       0.457173   0.136730  -0.284133  -0.276118   0.059734  -0.430303
     25      -0.038814  -0.128732  -0.117120   0.041082  -0.068078   0.096479
     26      -0.041176  -0.029474   0.155171   0.032909   0.024424   0.075202
     27      -0.390487   0.113014  -0.332340   0.239072   0.004440   0.383184
     28       0.000993  -0.115641  -0.089913  -0.019671  -0.045331  -0.071356
     29       0.243789  -0.097608   0.007633  -0.146910  -0.061571  -0.225041
                 18         19         20         21         22         23    
      0       0.100882  -0.021329  -0.015003   0.020378   0.001848   0.030294
      1       0.112016   0.026911   0.008357  -0.025410   0.002408   0.039362
      2      -0.012349   0.012062  -0.046785  -0.010276  -0.000186  -0.002459
      3      -0.037929  -0.005087  -0.007594   0.042769  -0.017596  -0.001493
      4      -0.027996  -0.049366   0.003466  -0.059807  -0.025380  -0.000084
      5       0.007320  -0.007334  -0.026430  -0.024510   0.001070   0.000463
      6      -0.134119   0.060037   0.215058  -0.067734  -0.003255  -0.513164
      7      -0.564882   0.234210  -0.128270  -0.252938  -0.012420   0.162574
      8      -0.061093   0.021959   0.660706  -0.040621  -0.001245   0.198237
      9      -0.481139   0.077040  -0.453762  -0.053546   0.002632   0.223862
     10      -0.254098  -0.276321  -0.032254   0.275289   0.018505  -0.392935
     11      -0.056039  -0.375543   0.196273   0.360606   0.017405   0.359139
     12      -0.386459   0.245217   0.477594  -0.240532  -0.005932  -0.066246
     13      -0.310100  -0.374932   0.027247   0.370352   0.023451  -0.227781
     14       0.235134   0.148241  -0.107266  -0.145869  -0.008558  -0.527690
     15      -0.001416   0.005728   0.003114  -0.002469   0.052407   0.000201
     16       0.005507  -0.003999  -0.001778   0.000412  -0.045634   0.000018
     17       0.001519  -0.002692   0.009562   0.000586  -0.025743  -0.000071
     18       0.118331  -0.161586   0.008493  -0.271722   0.055455   0.000674
     19       0.032647   0.427529  -0.031188   0.379001   0.010472  -0.002285
     20      -0.040837  -0.192403  -0.015291  -0.178950  -0.022706  -0.010414
     21       0.121890   0.024646  -0.015386  -0.076070   0.059144   0.006266
     22       0.029213   0.320221   0.045722   0.266373   0.008242  -0.005539
     23      -0.026209   0.376837   0.022366   0.413183  -0.011141   0.006667
     24       0.018936  -0.005557  -0.060166   0.000477  -0.449591   0.001051
     25      -0.007178  -0.003333   0.004755  -0.016113   0.501062  -0.000856
     26       0.004514  -0.001451   0.010900   0.008236  -0.196420  -0.001376
     27       0.012119  -0.004626   0.054169  -0.009010  -0.199035   0.001577
     28      -0.003281  -0.004247  -0.002186  -0.012259   0.358533  -0.001447
     29      -0.016652   0.003425  -0.028164  -0.010235   0.569859   0.000204
                 24         25         26         27         28         29    
      0       0.009014  -0.016307  -0.066382   0.024280  -0.000161  -0.000067
      1      -0.008893   0.009344   0.052829  -0.014084   0.000343   0.000046
      2      -0.004809  -0.049980   0.032561   0.071268   0.000103  -0.000206
      3      -0.015792   0.023686  -0.003666   0.017108  -0.001858   0.001037
      4       0.063005  -0.013878   0.010557  -0.009974  -0.003385  -0.000597
      5       0.017536   0.071911   0.004037   0.051947  -0.000041   0.003172
      6      -0.096332  -0.004308   0.727037  -0.004419  -0.005621  -0.000379
      7       0.034773   0.002211  -0.213458   0.000042   0.000933   0.000188
      8       0.037933  -0.010810  -0.277602   0.016732   0.002062  -0.000809
      9      -0.022775   0.155886   0.137741  -0.218720   0.001645   0.001205
     10       0.042719  -0.284199  -0.264811   0.407150   0.001725   0.001209
     11      -0.043172   0.246295   0.254399  -0.351262  -0.000465  -0.000051
     12       0.011112   0.044991  -0.063953  -0.065654   0.001866  -0.001147
     13       0.024780   0.169371  -0.156229  -0.239646   0.001763  -0.001354
     14       0.062101   0.367143  -0.368898  -0.512741   0.000118   0.000061
     15      -0.000495  -0.000585   0.000149  -0.000651   0.018737   0.024710
     16      -0.001280   0.000348  -0.001220   0.000378  -0.050617  -0.014214
     17      -0.000091  -0.001798  -0.000301  -0.001994  -0.015813   0.075285
     18      -0.075244  -0.056918  -0.011780  -0.043769   0.004191  -0.002251
     19      -0.276150  -0.237123  -0.044903  -0.167338   0.004616  -0.005648
     20      -0.641048  -0.514810  -0.100218  -0.363830   0.013160  -0.017230
     21       0.273461  -0.227018   0.038407  -0.157116  -0.003586  -0.007497
     22      -0.471306   0.403376  -0.067936   0.284434   0.008935   0.011233
     23       0.429366  -0.347290   0.060096  -0.246814  -0.010645  -0.012415
     24       0.002146   0.004313   0.003928   0.006950   0.061652  -0.060916
     25       0.007190   0.007206   0.003881   0.005358   0.259468  -0.296239
     26       0.012733   0.013058   0.004096   0.008657   0.655416  -0.634290
     27      -0.004721   0.003257   0.001216  -0.001389  -0.296454  -0.283948
     28       0.010989  -0.011653   0.005120  -0.008588   0.462175   0.494694
     29      -0.008297   0.010071  -0.003780   0.008776  -0.440646  -0.416762


-----------
IR SPECTRUM
-----------

 Mode    freq (cm**-1)   T**2         TX         TY         TZ
-------------------------------------------------------------------
   6:       267.29    5.462416  (  0.711684  -0.399399   2.190069)
   7:       312.69   48.771498  (  2.116876  -1.222174   6.541913)
   8:       426.32    6.111765  (  2.254896  -0.555154  -0.847947)
   9:       790.69    0.776275  ( -0.302859   0.119367  -0.818721)
  10:       889.93  182.338582  ( 12.348899   4.403388  -3.233180)
  11:       925.36    6.372583  ( -2.139675  -1.247995   0.486703)
  12:      1012.26    1.165946  ( -0.334846   0.187397  -1.009310)
  13:      1087.02   25.322390  ( -4.528353  -1.882045   1.128853)
  14:      1161.25    9.572600  ( -0.413695  -3.034365  -0.440552)
  15:      1278.33    0.019662  (  0.022896  -0.040193   0.132373)
  16:      1378.62   17.753646  ( -3.980220  -0.737619   1.169365)
  17:      1389.09    0.019587  ( -0.114295  -0.008615   0.080306)
  18:      1422.87    4.823633  ( -1.487499  -1.600990   0.218659)
  19:      1494.71    0.039976  (  0.175448  -0.052714  -0.080095)
  20:      1510.14    5.804510  (  0.760589  -0.439363   2.243429)
  21:      1515.05    0.788723  ( -0.475764   0.712768   0.233095)
  22:      1676.16   19.568198  ( -1.453021   3.996690   1.217949)
  23:      3038.40   25.991385  (  3.355699   3.820186  -0.369926)
  24:      3057.94   34.597712  ( -1.112280   5.590663   1.450873)
  25:      3094.76    1.736143  (  0.435193  -0.255329   1.217193)
  26:      3112.65   57.200731  ( -5.716227   4.116078   2.753794)
  27:      3122.23   68.232843  (  2.590553  -1.516484   7.695593)
  28:      3463.85    1.722818  (  0.622466  -1.071987  -0.431505)
  29:      3545.11    0.607776  (  0.232613  -0.131057   0.732455)

The first frequency considered to be a vibration is 6
The total number of vibrations considered is 24


--------------------------
THERMOCHEMISTRY AT 298.15K
--------------------------

Temperature         ... 298.15 K
Pressure            ... 1.00 atm
Total Mass          ... 45.09 AMU

Throughout the following assumptions are being made:
  (1) The electronic state is orbitally nondegenerate
  (2) There are no thermally accessible electronically excited states
  (3) Hindered rotations indicated by low frequency modes are not
      treated as such but are treated as vibrations and this may
      cause some error
  (4) All equations used are the standard statistical mechanics
      equations for an ideal gas
  (5) All vibrations are strictly harmonic

freq.     267.29  E(vib)   ...       0.29 
freq.     312.69  E(vib)   ...       0.25 
freq.     426.32  E(vib)   ...       0.18 
freq.     790.69  E(vib)   ...       0.05 
freq.     889.93  E(vib)   ...       0.04 
freq.     925.36  E(vib)   ...       0.03 
freq.    1012.26  E(vib)   ...       0.02 
freq.    1087.02  E(vib)   ...       0.02 
freq.    1161.25  E(vib)   ...       0.01 
freq.    1278.33  E(vib)   ...       0.01 
freq.    1378.62  E(vib)   ...       0.01 
freq.    1389.09  E(vib)   ...       0.00 
freq.    1422.87  E(vib)   ...       0.00 
freq.    1494.71  E(vib)   ...       0.00 
freq.    1510.14  E(vib)   ...       0.00 
freq.    1515.05  E(vib)   ...       0.00 
freq.    1676.16  E(vib)   ...       0.00 
freq.    3038.40  E(vib)   ...       0.00 
freq.    3057.94  E(vib)   ...       0.00 
freq.    3094.76  E(vib)   ...       0.00 
freq.    3112.65  E(vib)   ...       0.00 
freq.    3122.23  E(vib)   ...       0.00 
freq.    3463.85  E(vib)   ...       0.00 
freq.    3545.11  E(vib)   ...       0.00 

------------
INNER ENERGY
------------

The inner energy is: U= E(el) + E(ZPE) + E(vib) + E(rot) + E(trans)
    E(el)   - is the total energy from the electronic structure calculation
              = E(kin-el) + E(nuc-el) + E(el-el) + E(nuc-nuc)
    E(ZPE)  - the the zero temperature vibrational energy from the frequency calculation
    E(vib)  - the the finite temperature correction to E(ZPE) due to population
              of excited vibrational states
    E(rot)  - is the rotational thermal energy
    E(trans)- is the translational thermal energy

Summary of contributions to the inner energy U:
Electronic energy                ...   -135.08480537 Eh
Zero point energy                ...      0.09334270 Eh      58.57 kcal/mol
Thermal vibrational correction   ...      0.00147072 Eh       0.92 kcal/mol
Thermal rotational correction    ...      0.00141627 Eh       0.89 kcal/mol
Thermal translational correction ...      0.00141627 Eh       0.89 kcal/mol
-----------------------------------------------------------------------
Total thermal energy                   -134.98715941 Eh


Summary of corrections to the electronic energy:
(perhaps to be used in another calculation)
Total thermal correction                  0.00430326 Eh       2.70 kcal/mol
Non-thermal (ZPE) correction              0.09334270 Eh      58.57 kcal/mol
-----------------------------------------------------------------------
Total correction                          0.09764596 Eh      61.27 kcal/mol


--------
ENTHALPY
--------

The enthalpy is H = U + kB*T
                kB is Boltzmann's constant
Total free energy                 ...   -134.98715941 Eh 
Thermal Enthalpy correction       ...      0.00094421 Eh       0.59 kcal/mol
-----------------------------------------------------------------------
Total Enthalpy                    ...   -134.98621520 Eh


Vibrational entropy computed according to the QRRHO of S. Grimme
Chem.Eur.J. 2012 18 9955


-------
ENTROPY
-------

The entropy contributions are T*S = T*(S(el)+S(vib)+S(rot)+S(trans)
     S(el)   - electronic entropy
     S(vib)  - vibrational entropy
     S(rot)  - rotational entropy
     S(trans)- translational entropy
The entropies will be listed as mutliplied by the temperature to get
units of energy

Electronic entropy                ...      0.00000000 Eh      0.00 kcal/mol
Vibrational entropy               ...      0.00221324 Eh      1.39 kcal/mol
Rotational entropy                ...      0.00963771 Eh      6.05 kcal/mol
Translational entropy             ...      0.01774301 Eh     11.13 kcal/mol
-----------------------------------------------------------------------
Final entropy term                ...      0.02959396 Eh     18.57 kcal/mol


CAUTION: The rotational entropy is not quite correctly treated here
         because it includes a symmetry number that is not yet correctly
         implemented in ORCA!
For a nonlinear molecule the correct rotational entropy is:
    S(rot) = R*(ln(qrot/sn)+1.5)
    R    = 8.31441 J/mol/K = 1.987191683e-3 kcal/mol/K
    qrot = 18143.9357950
    sn is the rotational symmetry number. We have assumed 3 here
       if it is different for your molecule then you should correct
       the printed rotational entropy by manually evaluating the equation
       as given above

For convenience we print out the resulting values for sn=1 - 12:
 sn= 1  qrot/sn=   18143.9358 T*S(rot)=     6.70 kcal/mol T*S(tot)=    19.22 kcal/mol
 sn= 2  qrot/sn=    9071.9679 T*S(rot)=     6.29 kcal/mol T*S(tot)=    18.81 kcal/mol
 sn= 3  qrot/sn=    6047.9786 T*S(rot)=     6.05 kcal/mol T*S(tot)=    18.57 kcal/mol
 sn= 4  qrot/sn=    4535.9839 T*S(rot)=     5.88 kcal/mol T*S(tot)=    18.40 kcal/mol
 sn= 5  qrot/sn=    3628.7872 T*S(rot)=     5.75 kcal/mol T*S(tot)=    18.27 kcal/mol
 sn= 6  qrot/sn=    3023.9893 T*S(rot)=     5.64 kcal/mol T*S(tot)=    18.16 kcal/mol
 sn= 7  qrot/sn=    2591.9908 T*S(rot)=     5.55 kcal/mol T*S(tot)=    18.07 kcal/mol
 sn= 8  qrot/sn=    2267.9920 T*S(rot)=     5.47 kcal/mol T*S(tot)=    17.99 kcal/mol
 sn= 9  qrot/sn=    2015.9929 T*S(rot)=     5.40 kcal/mol T*S(tot)=    17.92 kcal/mol
 sn=10  qrot/sn=    1814.3936 T*S(rot)=     5.33 kcal/mol T*S(tot)=    17.86 kcal/mol
 sn=11  qrot/sn=    1649.4487 T*S(rot)=     5.28 kcal/mol T*S(tot)=    17.80 kcal/mol
 sn=12  qrot/sn=    1511.9946 T*S(rot)=     5.23 kcal/mol T*S(tot)=    17.75 kcal/mol


-------------------
GIBBS FREE ENTHALPY
-------------------

The Gibbs free enthalpy is G = H - T*S

Total enthalpy                    ...   -134.98621520 Eh 
Total entropy correction          ...     -0.02959396 Eh    -18.57 kcal/mol
-----------------------------------------------------------------------
Final Gibbs free enthalpy         ...   -135.01580916 Eh

For completeness - the Gibbs free enthalpy minus the electronic energy
G-E(el)                           ...      0.06899621 Eh     43.30 kcal/mol


Timings for individual modules:

Sum of individual times         ...      212.726 sec (=   3.545 min)
GTO integral calculation        ...        3.846 sec (=   0.064 min)   1.8 %
SCF iterations                  ...       20.047 sec (=   0.334 min)   9.4 %
Analytical frequency calculation...      188.832 sec (=   3.147 min)  88.8 %
                             ****ORCA TERMINATED NORMALLY****
TOTAL RUN TIME: 0 days 0 hours 3 minutes 36 seconds 572 msec
