
                                 *****************
                                 * O   R   C   A *
                                 *****************

           --- An Ab Initio, DFT and Semiempirical electronic structure package ---

                  #######################################################
                  #                        -***-                        #
                  #  Department of molecular theory and spectroscopy    #
                  #              Directorship: Frank Neese              #
                  # Max Planck Institute for Chemical Energy Conversion #
                  #                  D-45470 Muelheim/Ruhr              #
                  #                       Germany                       #
                  #                                                     #
                  #                  All rights reserved                #
                  #                        -***-                        #
                  #######################################################


                         Program Version 4.0.1 -  RELEASE  -


 With contributions from (in alphabetic order):
   Daniel Aravena         : Magnetic Properties
   Michael Atanasov       : Ab Initio Ligand Field Theory
   Ute Becker             : Parallelization
   Martin Brehm           : Molecular dynamics
   Dmytro Bykov           : SCF Hessian
   Vijay G. Chilkuri      : MRCI spin determinant printing
   Dipayan Datta          : RHF DLPNO-CCSD density
   Achintya Kumar Dutta   : EOM-CC, STEOM-CC
   Dmitry Ganyushin       : Spin-Orbit,Spin-Spin,Magnetic field MRCI
   Yang Guo               : DLPNO-NEVPT2, CIM, IAO-localization
   Andreas Hansen         : Spin unrestricted coupled pair/coupled cluster methods
   Lee Huntington         : MR-EOM, pCC
   Robert Izsak           : Overlap fitted RIJCOSX, COSX-SCS-MP3, EOM
   Christian Kollmar      : KDIIS, OOCD, Brueckner-CCSD(T), CCSD density
   Simone Kossmann        : Meta GGA functionals, TD-DFT gradient, OOMP2, MP2 Hessian
   Martin Krupicka        : AUTO-CI
   Dagmar Lenk            : GEPOL surface
   Dimitrios Liakos       : Extrapolation schemes; parallel MDCI
   Dimitrios Manganas     : ROCIS; embedding schemes
   Dimitrios Pantazis     : SARC Basis sets
   Taras Petrenko         : DFT Hessian,TD-DFT gradient, ASA, ECA, R-Raman, ABS, FL, XAS/XES, NRVS
   Peter Pinski           : DLPNO-MP2
   Christoph Reimann      : Effective Core Potentials
   Marius Retegan         : Local ZFS, SOC
   Christoph Riplinger    : Optimizer, TS searches, QM/MM, DLPNO-CCSD(T), (RO)-DLPNO pert. Triples
   Tobias Risthaus        : Range-separated hybrids, TD-DFT gradient, RPA, STAB
   Michael Roemelt        : Restricted open shell CIS
   Masaaki Saitow         : Open-shell DLPNO
   Barbara Sandhoefer     : DKH picture change effects
   Kantharuban Sivalingam : CASSCF convergence, NEVPT2, FIC-MRCI
   Georgi Stoychev        : AutoAux
   Boris Wezisla          : Elementary symmetry handling
   Frank Wennmohs         : Technical directorship


 We gratefully acknowledge several colleagues who have allowed us to
 interface, adapt or use parts of their codes:
   Stefan Grimme, W. Hujo, H. Kruse,             : VdW corrections, initial TS optimization,
                  C. Bannwarth                     DFT functionals, gCP, sTDA/sTD-DF
   Ed Valeev                                     : LibInt (2-el integral package), F12 methods
   Garnet Chan, S. Sharma, J. Yang, R. Olivares  : DMRG
   Ulf Ekstrom                                   : XCFun DFT Library
   Mihaly Kallay                                 : mrcc  (arbitrary order and MRCC methods)
   Andreas Klamt, Michael Diedenhofen            : otool_cosmo (COSMO solvation model)
   Jiri Pittner, Ondrej Demel                    : Mk-CCSD
   Frank Weinhold                                : gennbo (NPA and NBO analysis)
   Christopher J. Cramer and Donald G. Truhlar   : smd solvation model


 Your calculation uses the libint2 library for the computation of 2-el integrals
 For citations please refer to: http://libint.valeyev.net

 This ORCA versions uses:
   CBLAS   interface :  Fast vector & matrix operations
   LAPACKE interface :  Fast linear algebra routines
   SCALAPACK package :  Parallel linear algebra routines




*****************************************
The coordinations will be read from file: p-nitrotolueno.xyz
*****************************************


Your calculation utilizes the basis: 6-31G(d,p)
   H-He, Li-Ne : W. J. Hehre, R. Ditchfield and J.A. Pople, J. Chem. Phys. 56, 2257 (1972).
                 Note: He and Ne are unpublished basis sets taken from the Gaussian program.
                 Note: Li and B from J. D. Dill and J. A. Pople, J. Chem. Phys. 62, 2921 (1975).
   Na - Ar     : M. M. Francl, W. J. Pietro, W. J. Hehre, J. S. Binkley, M. S. Gordon, 
                 D. J. DeFrees and J. A. Pople, J. Chem. Phys. 77, 3654 (1982).
   K - Zn      : V. A. Rassolov, J. A. Pople, M. A. Ratner, and T. L. Windus, J. Chem. Phys. 109, 1223 (1998).

================================================================================
                                        WARNINGS
                       Please study these warnings very carefully!
================================================================================

Warning: TCutStore was < 0. Adjusted to Thresh (uncritical)

INFO   : the flag for use of LIBINT has been found!

================================================================================
                                       INPUT FILE
================================================================================
NAME = p-nitrotolueno.inp
|  1> ! B3LYP 6-31G(d,p) Freq
|  2> 
|  3> * xyzfile 0 1 p-nitrotolueno.xyz
|  4> 
|  5>                          ****END OF INPUT****
================================================================================

                       ****************************
                       * Single Point Calculation *
                       ****************************

---------------------------------
CARTESIAN COORDINATES (ANGSTROEM)
---------------------------------
  C     -4.451380    1.429700   -0.135670
  C     -4.343790    0.036930   -0.146640
  C     -3.080750   -0.557580   -0.037240
  C     -1.930730    0.231590    0.086890
  C     -2.049650    1.623480    0.096880
  C     -3.306580    2.231460   -0.027260
  H     -1.153600    2.232910    0.201150
  C     -3.433030    3.726860    0.018760
  H     -5.435920    1.887800   -0.213450
  H     -5.246510   -0.563500   -0.237370
  N     -2.961760   -2.020520   -0.047420
  H     -0.943580   -0.216440    0.179020
  H     -2.530140    4.208230   -0.371420
  H     -3.592250    4.056890    1.049880
  H     -4.273130    4.065600   -0.596620
  O     -4.003350   -2.683910   -0.155250
  O     -1.826520   -2.508290    0.052360

----------------------------
CARTESIAN COORDINATES (A.U.)
----------------------------
  NO LB      ZA    FRAG     MASS         X           Y           Z
   0 C     6.0000    0    12.011   -8.411889    2.701741   -0.256379
   1 C     6.0000    0    12.011   -8.208573    0.069788   -0.277109
   2 C     6.0000    0    12.011   -5.821774   -1.053673   -0.070373
   3 C     6.0000    0    12.011   -3.648551    0.437642    0.164198
   4 C     6.0000    0    12.011   -3.873277    3.067933    0.183077
   5 C     6.0000    0    12.011   -6.248531    4.216848   -0.051514
   6 H     1.0000    0     1.008   -2.179988    4.219588    0.380118
   7 C     6.0000    0    12.011   -6.487487    7.042745    0.035451
   8 H     1.0000    0     1.008  -10.272400    3.567425   -0.403362
   9 H     1.0000    0     1.008   -9.914467   -1.064861   -0.448564
  10 N     7.0000    0    14.007   -5.596915   -3.818229   -0.089611
  11 H     1.0000    0     1.008   -1.783108   -0.409012    0.338299
  12 H     1.0000    0     1.008   -4.781272    7.952402   -0.701882
  13 H     1.0000    0     1.008   -6.788369    7.666411    1.983986
  14 H     1.0000    0     1.008   -8.075045    7.682871   -1.127448
  15 O     8.0000    0    15.999   -7.565235   -5.071855   -0.293380
  16 O     8.0000    0    15.999   -3.451623   -4.739981    0.098946

--------------------------------
INTERNAL COORDINATES (ANGSTROEM)
--------------------------------
 C      0   0   0     0.000000000000     0.00000000     0.00000000
 C      1   0   0     1.396962498387     0.00000000     0.00000000
 C      2   1   0     1.400243029513   119.48259303     0.00000000
 C      3   2   1     1.400265527034   120.56089756     0.20844825
 C      4   3   2     1.396996613668   119.48839679   359.79697857
 C      5   4   3     1.401757270322   120.51997438   359.46876737
 H      5   4   3     1.088660994203   119.23361506   179.54159494
 C      6   5   4     1.501442174344   120.31706986   178.45507301
 H      1   2   3     1.088680095345   119.24931117   180.45504339
 H      2   1   3     1.087957497423   119.14240365   179.82229135
 N      3   2   1     1.467806423238   119.71921851   179.96499884
 H      4   3   2     1.087972398685   121.37243237   179.61197926
 H      8   6   5     1.095065231573   110.94378837    30.09303900
 H      8   6   5     1.094293956714   109.96908075   269.61600215
 H      8   6   5     1.095082344849   110.82217323   149.10664781
 O     11   3   2     1.239606118531   117.76680369     0.04225700
 O     11   3   2     1.239615052708   117.76608838   180.04010736

---------------------------
INTERNAL COORDINATES (A.U.)
---------------------------
 C      0   0   0     0.000000000000     0.00000000     0.00000000
 C      1   0   0     2.639876541310     0.00000000     0.00000000
 C      2   1   0     2.646075846712   119.48259303     0.00000000
 C      3   2   1     2.646118360865   120.56089756     0.20844825
 C      4   3   2     2.639941009848   119.48839679   359.79697857
 C      5   4   3     2.648937347141   120.51997438   359.46876737
 H      5   4   3     2.057271131727   119.23361506   179.54159494
 C      6   5   4     2.837314515430   120.31706986   178.45507301
 H      1   2   3     2.057307227653   119.24931117   180.45504339
 H      2   1   3     2.055941715477   119.14240365   179.82229135
 N      3   2   1     2.773752157531   119.71921851   179.96499884
 H      4   3   2     2.055969874780   121.37243237   179.61197926
 H      8   6   5     2.069373386452   110.94378837    30.09303900
 H      8   6   5     2.067915888194   109.96908075   269.61600215
 H      8   6   5     2.069405725857   110.82217323   149.10664781
 O     11   3   2     2.342516077957   117.76680369     0.04225700
 O     11   3   2     2.342532961104   117.76608838   180.04010736

---------------------
BASIS SET INFORMATION
---------------------
There are 4 groups of distinct atoms

 Group   1 Type C   : 10s4p1d contracted to 3s2p1d pattern {631/31/1}
 Group   2 Type H   : 4s1p contracted to 2s1p pattern {31/1}
 Group   3 Type N   : 10s4p1d contracted to 3s2p1d pattern {631/31/1}
 Group   4 Type O   : 10s4p1d contracted to 3s2p1d pattern {631/31/1}

Atom   0C    basis set group =>   1
Atom   1C    basis set group =>   1
Atom   2C    basis set group =>   1
Atom   3C    basis set group =>   1
Atom   4C    basis set group =>   1
Atom   5C    basis set group =>   1
Atom   6H    basis set group =>   2
Atom   7C    basis set group =>   1
Atom   8H    basis set group =>   2
Atom   9H    basis set group =>   2
Atom  10N    basis set group =>   3
Atom  11H    basis set group =>   2
Atom  12H    basis set group =>   2
Atom  13H    basis set group =>   2
Atom  14H    basis set group =>   2
Atom  15O    basis set group =>   4
Atom  16O    basis set group =>   4
------------------------------------------------------------------------------
                           ORCA GTO INTEGRAL CALCULATION
------------------------------------------------------------------------------

                         BASIS SET STATISTICS AND STARTUP INFO

 # of primitive gaussian shells          ...  185
 # of primitive gaussian functions       ...  319
 # of contracted shells                  ...   81
 # of contracted basis functions         ...  175
 Highest angular momentum                ...    2
 Maximum contraction depth               ...    6
 Integral package used                   ... LIBINT
 Integral threshhold            Thresh   ...  1.000e-10
 Primitive cut-off              TCut     ...  1.000e-11


------------------------------ INTEGRAL EVALUATION ----------------------------


 * One electron integrals 
 Pre-screening matrix                    ... done
 Shell pair data                         ... done (   0.003 sec)

-------------------------------------------------------------------------------
                                 ORCA SCF
-------------------------------------------------------------------------------

------------
SCF SETTINGS
------------
Hamiltonian:
 Density Functional     Method          .... DFT(GTOs)
 Exchange Functional    Exchange        .... B88
   X-Alpha parameter    XAlpha          ....  0.666667
   Becke's b parameter  XBeta           ....  0.004200
 Correlation Functional Correlation     .... LYP
 LDA part of GGA corr.  LDAOpt          .... VWN-5
 Gradients option       PostSCFGGA      .... off
 Hybrid DFT is turned on
   Fraction HF Exchange ScalHFX         ....  0.200000
   Scaling of DF-GGA-X  ScalDFX         ....  0.720000
   Scaling of DF-GGA-C  ScalDFC         ....  0.810000
   Scaling of DF-LDA-C  ScalLDAC        ....  1.000000
   Perturbative correction              ....  0.000000
   NL short-range parameter             ....  4.800000


General Settings:
 Integral files         IntName         .... p-nitrotolueno
 Hartree-Fock type      HFTyp           .... RHF
 Total Charge           Charge          ....    0
 Multiplicity           Mult            ....    1
 Number of Electrons    NEL             ....   72
 Basis Dimension        Dim             ....  175
 Nuclear Repulsion      ENuc            ....    490.2520543114 Eh

Convergence Acceleration:
 DIIS                   CNVDIIS         .... on
   Start iteration      DIISMaxIt       ....    12
   Startup error        DIISStart       ....  0.200000
   # of expansion vecs  DIISMaxEq       ....     5
   Bias factor          DIISBfac        ....   1.050
   Max. coefficient     DIISMaxC        ....  10.000
 Newton-Raphson         CNVNR           .... off
 SOSCF                  CNVSOSCF        .... on
   Start iteration      SOSCFMaxIt      ....   150
   Startup grad/error   SOSCFStart      ....  0.003300
 Level Shifting         CNVShift        .... on
   Level shift para.    LevelShift      ....    0.2500
   Turn off err/grad.   ShiftErr        ....    0.0010
 Zerner damping         CNVZerner       .... off
 Static damping         CNVDamp         .... on
   Fraction old density DampFac         ....    0.7000
   Max. Damping (<1)    DampMax         ....    0.9800
   Min. Damping (>=0)   DampMin         ....    0.0000
   Turn off err/grad.   DampErr         ....    0.1000
 Fernandez-Rico         CNVRico         .... off

SCF Procedure:
 Maximum # iterations   MaxIter         ....   125
 SCF integral mode      SCFMode         .... Direct
   Integral package                     .... LIBINT
 Reset frequeny         DirectResetFreq ....    20
 Integral Threshold     Thresh          ....  1.000e-10 Eh
 Primitive CutOff       TCut            ....  1.000e-11 Eh

Convergence Tolerance:
 Convergence Check Mode ConvCheckMode   .... Total+1el-Energy
 Convergence forced     ConvForced      .... 0
 Energy Change          TolE            ....  1.000e-06 Eh
 1-El. energy change                    ....  1.000e-03 Eh
 Orbital Gradient       TolG            ....  5.000e-05
 Orbital Rotation angle TolX            ....  5.000e-05
 DIIS Error             TolErr          ....  1.000e-06


Diagonalization of the overlap matrix:
Smallest eigenvalue                        ... 4.427e-04
Time for diagonalization                   ...    0.015 sec
Threshold for overlap eigenvalues          ... 1.000e-08
Number of eigenvalues below threshold      ... 0
Time for construction of square roots      ...    0.006 sec
Total time needed                          ...    0.021 sec

-------------------
DFT GRID GENERATION
-------------------

General Integration Accuracy     IntAcc      ...  4.340
Radial Grid Type                 RadialGrid  ... Gauss-Chebyshev
Angular Grid (max. acc.)         AngularGrid ... Lebedev-110
Angular grid pruning method      GridPruning ... 3 (G Style)
Weight generation scheme         WeightScheme... Becke
Basis function cutoff            BFCut       ...    1.0000e-10
Integration weight cutoff        WCut        ...    1.0000e-14
Grids for H and He will be reduced by one unit

# of grid points (after initial pruning)     ...  22284 (   0.0 sec)
# of grid points (after weights+screening)   ...  20694 (   0.1 sec)
nearest neighbour list constructed           ...    0.0 sec
Grid point re-assignment to atoms done       ...    0.0 sec
Grid point division into batches done        ...    0.0 sec
Reduced shell lists constructed in    0.4 sec

Total number of grid points                  ...    20694
Total number of batches                      ...      332
Average number of points per batch           ...       62
Average number of grid points per atom       ...     1217
Average number of shells per batch           ...    50.14 (61.90%)
Average number of basis functions per batch  ...   108.83 (62.19%)
Average number of large shells per batch     ...    37.38 (74.56%)
Average number of large basis fcns per batch ...    81.40 (74.79%)
Maximum spatial batch extension              ...  21.31, 23.63, 23.29 au
Average spatial batch extension              ...   3.57,  3.60,  4.37 au

Time for grid setup =    0.579 sec

------------------------------
INITIAL GUESS: MODEL POTENTIAL
------------------------------
Loading Hartree-Fock densities                     ... done
Calculating cut-offs                               ... done
Setting up the integral package                    ... done
Initializing the effective Hamiltonian             ... done
Starting the Coulomb interaction                   ... done (   0.4 sec)
Reading the grid                                   ... done
Mapping shells                                     ... done
Starting the XC term evaluation                    ... done (   0.5 sec)
  promolecular density results
     # of electrons  =     71.991982139
     EX              =    -61.001710961
     EC              =     -2.465738691
     EX+EC           =    -63.467449652
Transforming the Hamiltonian                       ... done (   0.0 sec)
Diagonalizing the Hamiltonian                      ... done (   0.0 sec)
Back transforming the eigenvectors                 ... done (   0.0 sec)
Now organizing SCF variables                       ... done
                      ------------------
                      INITIAL GUESS DONE (   1.7 sec)
                      ------------------
--------------
SCF ITERATIONS
--------------
ITER       Energy         Delta-E        Max-DP      RMS-DP      [F,P]     Damp
               ***  Starting incremental Fock matrix formation  ***
  0   -475.5212176546   0.000000000000 0.09188917  0.00227500  0.2315650 0.7000
  1   -475.6557741065  -0.134556451969 0.04307248  0.00141769  0.0906410 0.7000
                               ***Turning on DIIS***
  2   -475.7025737295  -0.046799622997 0.06262886  0.00217245  0.0366221 0.0000
  3   -475.7873761060  -0.084802376524 0.03593275  0.00096458  0.0460284 0.0000
  4   -475.8002560591  -0.012879953035 0.01324345  0.00033323  0.0186830 0.0000
                      *** Initiating the SOSCF procedure ***
                           *** Shutting down DIIS ***
                      *** Re-Reading the Fockian *** 
                      *** Removing any level shift *** 
ITER      Energy       Delta-E        Grad      Rot      Max-DP    RMS-DP
  5   -475.80183377  -0.0015777065  0.001429  0.001429  0.002719  0.000111
               *** Restarting incremental Fock matrix formation ***
  6   -475.80188304  -0.0000492731  0.000710  0.002917  0.002000  0.000062
  7   -475.80187400   0.0000090343  0.000952  0.001575  0.001128  0.000036
  8   -475.80189042  -0.0000164175  0.000067  0.000211  0.000240  0.000008
                 **** Energy Check signals convergence ****
              ***Rediagonalizing the Fockian in SOSCF/NRSCF***

               *****************************************************
               *                     SUCCESS                       *
               *           SCF CONVERGED AFTER   9 CYCLES          *
               *****************************************************

Setting up the final grid:

General Integration Accuracy     IntAcc      ...  4.670
Radial Grid Type                 RadialGrid  ... Gauss-Chebyshev
Angular Grid (max. acc.)         AngularGrid ... Lebedev-302
Angular grid pruning method      GridPruning ... 3 (G Style)
Weight generation scheme         WeightScheme... Becke
Basis function cutoff            BFCut       ...    1.0000e-10
Integration weight cutoff        WCut        ...    1.0000e-14
Grids for H and He will be reduced by one unit

# of grid points (after initial pruning)     ...  85878 (   0.1 sec)
# of grid points (after weights+screening)   ...  78484 (   0.6 sec)
nearest neighbour list constructed           ...    0.0 sec
Grid point re-assignment to atoms done       ...    0.0 sec
Grid point division into batches done        ...    0.5 sec
Reduced shell lists constructed in    2.2 sec

Total number of grid points                  ...    78484
Total number of batches                      ...     1237
Average number of points per batch           ...       63
Average number of grid points per atom       ...     4617
Average number of shells per batch           ...    45.11 (55.69%)
Average number of basis functions per batch  ...    97.42 (55.67%)
Average number of large shells per batch     ...    32.79 (72.68%)
Average number of large basis fcns per batch ...    70.90 (72.77%)
Maximum spatial batch extension              ...  19.40, 20.91, 21.99 au
Average spatial batch extension              ...   2.41,  2.39,  2.67 au

Final grid set up in    2.8 sec
Final integration                            ... done (   2.5 sec)
Change in XC energy                          ...    -0.000632448
Integrated number of electrons               ...    72.000014741
Previous integrated no of electrons          ...    71.997080593

----------------
TOTAL SCF ENERGY
----------------

Total Energy       :         -475.80252275 Eh          -12947.24487 eV

Components:
Nuclear Repulsion  :          490.25205431 Eh           13340.43661 eV
Electronic Energy  :         -966.05457706 Eh          -26287.68148 eV
One Electron Energy:        -1617.74103544 Eh          -44020.97156 eV
Two Electron Energy:          651.68645839 Eh           17733.29008 eV

Virial components:
Potential Energy   :         -948.59173367 Eh          -25812.49336 eV
Kinetic Energy     :          472.78921093 Eh           12865.24849 eV
Virial Ratio       :            2.00637348


DFT components:
N(Alpha)           :       36.000007370370 electrons
N(Beta)            :       36.000007370370 electrons
N(Total)           :       72.000014740739 electrons
E(X)               :      -49.118539335757 Eh       
E(C)               :       -2.906028498007 Eh       
E(XC)              :      -52.024567833764 Eh       

---------------
SCF CONVERGENCE
---------------

  Last Energy change         ...    1.2410e-07  Tolerance :   1.0000e-06
  Last MAX-Density change    ...    1.4316e-04  Tolerance :   1.0000e-05
  Last RMS-Density change    ...    4.7587e-06  Tolerance :   1.0000e-06
  Last Orbital Gradient      ...    7.8321e-05  Tolerance :   5.0000e-05
  Last Orbital Rotation      ...    1.3269e-04  Tolerance :   5.0000e-05

             **** THE GBW FILE WAS UPDATED (p-nitrotolueno.gbw) ****
             **** DENSITY FILE WAS UPDATED (p-nitrotolueno.scfp.tmp) ****
             **** ENERGY FILE WAS UPDATED (p-nitrotolueno.en.tmp) ****
----------------
ORBITAL ENERGIES
----------------

  NO   OCC          E(Eh)            E(eV) 
   0   2.0000     -19.169081      -521.6172 
   1   2.0000     -19.169001      -521.6150 
   2   2.0000     -14.559094      -396.1731 
   3   2.0000     -10.244219      -278.7594 
   4   2.0000     -10.217832      -278.0413 
   5   2.0000     -10.213047      -277.9111 
   6   2.0000     -10.213010      -277.9101 
   7   2.0000     -10.205164      -277.6966 
   8   2.0000     -10.205092      -277.6947 
   9   2.0000     -10.194551      -277.4078 
  10   2.0000      -1.208317       -32.8800 
  11   2.0000      -1.036810       -28.2130 
  12   2.0000      -0.885323       -24.0909 
  13   2.0000      -0.815703       -22.1964 
  14   2.0000      -0.767236       -20.8776 
  15   2.0000      -0.740133       -20.1400 
  16   2.0000      -0.661946       -18.0125 
  17   2.0000      -0.628864       -17.1123 
  18   2.0000      -0.586820       -15.9682 
  19   2.0000      -0.549287       -14.9468 
  20   2.0000      -0.519508       -14.1365 
  21   2.0000      -0.505633       -13.7590 
  22   2.0000      -0.480543       -13.0762 
  23   2.0000      -0.473722       -12.8906 
  24   2.0000      -0.459834       -12.5127 
  25   2.0000      -0.441497       -12.0138 
  26   2.0000      -0.439903       -11.9704 
  27   2.0000      -0.400376       -10.8948 
  28   2.0000      -0.374206       -10.1827 
  29   2.0000      -0.373572       -10.1654 
  30   2.0000      -0.362114        -9.8536 
  31   2.0000      -0.300196        -8.1687 
  32   2.0000      -0.299153        -8.1404 
  33   2.0000      -0.281810        -7.6684 
  34   2.0000      -0.272036        -7.4025 
  35   2.0000      -0.267260        -7.2725 
  36   0.0000      -0.083560        -2.2738 
  37   0.0000      -0.023673        -0.6442 
  38   0.0000       0.005863         0.1595 
  39   0.0000       0.079044         2.1509 
  40   0.0000       0.109508         2.9799 
  41   0.0000       0.122376         3.3300 
  42   0.0000       0.128788         3.5045 
  43   0.0000       0.156239         4.2515 
  44   0.0000       0.158259         4.3064 
  45   0.0000       0.178756         4.8642 
  46   0.0000       0.186786         5.0827 
  47   0.0000       0.198093         5.3904 
  48   0.0000       0.218694         5.9510 
  49   0.0000       0.270094         7.3496 
  50   0.0000       0.270110         7.3501 
  51   0.0000       0.299068         8.1381 
  52   0.0000       0.315448         8.5838 
  53   0.0000       0.338724         9.2171 
  54   0.0000       0.374212        10.1828 
  55   0.0000       0.477474        12.9927 
  56   0.0000       0.489237        13.3128 
  57   0.0000       0.497286        13.5318 
  58   0.0000       0.498722        13.5709 
  59   0.0000       0.518771        14.1165 
  60   0.0000       0.533857        14.5270 
  61   0.0000       0.556253        15.1364 
  62   0.0000       0.573624        15.6091 
  63   0.0000       0.578145        15.7321 
  64   0.0000       0.579314        15.7639 
  65   0.0000       0.608747        16.5648 
  66   0.0000       0.620126        16.8745 
  67   0.0000       0.628609        17.1053 
  68   0.0000       0.640867        17.4389 
  69   0.0000       0.681917        18.5559 
  70   0.0000       0.699701        19.0398 
  71   0.0000       0.715372        19.4663 
  72   0.0000       0.729720        19.8567 
  73   0.0000       0.742130        20.1944 
  74   0.0000       0.782533        21.2938 
  75   0.0000       0.783382        21.3169 
  76   0.0000       0.792272        21.5588 
  77   0.0000       0.817062        22.2334 
  78   0.0000       0.832160        22.6442 
  79   0.0000       0.833302        22.6753 
  80   0.0000       0.847386        23.0585 
  81   0.0000       0.868456        23.6319 
  82   0.0000       0.884595        24.0711 
  83   0.0000       0.918739        25.0002 
  84   0.0000       0.936264        25.4770 
  85   0.0000       0.948733        25.8163 
  86   0.0000       0.955668        26.0050 
  87   0.0000       0.978223        26.6188 
  88   0.0000       0.998136        27.1606 
  89   0.0000       1.007302        27.4101 
  90   0.0000       1.050416        28.5833 
  91   0.0000       1.082363        29.4526 
  92   0.0000       1.101116        29.9629 
  93   0.0000       1.127664        30.6853 
  94   0.0000       1.166787        31.7499 
  95   0.0000       1.193322        32.4719 
  96   0.0000       1.228356        33.4253 
  97   0.0000       1.262520        34.3549 
  98   0.0000       1.274060        34.6689 
  99   0.0000       1.296175        35.2707 
 100   0.0000       1.354350        36.8537 
 101   0.0000       1.364030        37.1171 
 102   0.0000       1.368832        37.2478 
 103   0.0000       1.386030        37.7158 
 104   0.0000       1.398823        38.0639 
 105   0.0000       1.425768        38.7971 
 106   0.0000       1.434595        39.0373 
 107   0.0000       1.448699        39.4211 
 108   0.0000       1.590863        43.2896 
 109   0.0000       1.706974        46.4491 
 110   0.0000       1.712802        46.6077 
 111   0.0000       1.719242        46.7830 
 112   0.0000       1.726448        46.9790 
 113   0.0000       1.727747        47.0144 
 114   0.0000       1.773412        48.2570 
 115   0.0000       1.801929        49.0330 
 116   0.0000       1.814481        49.3745 
 117   0.0000       1.820589        49.5408 
 118   0.0000       1.825939        49.6863 
 119   0.0000       1.872237        50.9462 
 120   0.0000       1.891002        51.4568 
 121   0.0000       1.904582        51.8263 
 122   0.0000       1.935279        52.6616 
 123   0.0000       1.948398        53.0186 
 124   0.0000       1.964467        53.4559 
 125   0.0000       1.965798        53.4921 
 126   0.0000       2.005317        54.5675 
 127   0.0000       2.029759        55.2326 
 128   0.0000       2.045680        55.6658 
 129   0.0000       2.071347        56.3642 
 130   0.0000       2.072558        56.3972 
 131   0.0000       2.111288        57.4511 
 132   0.0000       2.114155        57.5291 
 133   0.0000       2.125499        57.8378 
 134   0.0000       2.142133        58.2904 
 135   0.0000       2.196102        59.7590 
 136   0.0000       2.241484        60.9939 
 137   0.0000       2.272481        61.8373 
 138   0.0000       2.296959        62.5034 
 139   0.0000       2.360667        64.2370 
 140   0.0000       2.376785        64.6756 
 141   0.0000       2.385866        64.9227 
 142   0.0000       2.394502        65.1577 
 143   0.0000       2.405656        65.4612 
 144   0.0000       2.437128        66.3176 
 145   0.0000       2.486635        67.6648 
 146   0.0000       2.506838        68.2145 
 147   0.0000       2.561071        69.6903 
 148   0.0000       2.571142        69.9643 
 149   0.0000       2.577391        70.1344 
 150   0.0000       2.584352        70.3238 
 151   0.0000       2.607318        70.9487 
 152   0.0000       2.676996        72.8448 
 153   0.0000       2.695928        73.3599 
 154   0.0000       2.698680        73.4348 
 155   0.0000       2.715619        73.8958 
 156   0.0000       2.716692        73.9249 
 157   0.0000       2.787961        75.8643 
 158   0.0000       2.810902        76.4885 
 159   0.0000       2.857079        77.7451 
 160   0.0000       2.862687        77.8977 
 161   0.0000       2.898171        78.8632 
 162   0.0000       2.921739        79.5046 
 163   0.0000       3.029850        82.4464 
 164   0.0000       3.066174        83.4348 
 165   0.0000       3.074806        83.6697 
 166   0.0000       3.175993        86.4232 
 167   0.0000       3.190420        86.8158 
 168   0.0000       3.229390        87.8762 
 169   0.0000       3.339084        90.8611 
 170   0.0000       3.344841        91.0178 
 171   0.0000       3.416923        92.9792 
 172   0.0000       3.453322        93.9697 
 173   0.0000       3.502829        95.3168 
 174   0.0000       3.820158       103.9518 

                    ********************************
                    * MULLIKEN POPULATION ANALYSIS *
                    ********************************

-----------------------
MULLIKEN ATOMIC CHARGES
-----------------------
   0 C :   -0.123213
   1 C :   -0.087713
   2 C :    0.217754
   3 C :   -0.087353
   4 C :   -0.121984
   5 C :    0.125890
   6 H :    0.098648
   7 C :   -0.369526
   8 H :    0.097571
   9 H :    0.134318
  10 N :    0.372477
  11 H :    0.133308
  12 H :    0.118586
  13 H :    0.135432
  14 H :    0.119966
  15 O :   -0.381398
  16 O :   -0.382765
Sum of atomic charges:    0.0000000

--------------------------------
MULLIKEN REDUCED ORBITAL CHARGES
--------------------------------
  0 C s       :     3.188584  s :     3.188584
      pz      :     1.004555  p :     2.900508
      px      :     0.958067
      py      :     0.937887
      dz2     :     0.002889  d :     0.034120
      dxz     :     0.002810
      dyz     :     0.004843
      dx2y2   :     0.011525
      dxy     :     0.012053
  1 C s       :     3.183698  s :     3.183698
      pz      :     0.940645  p :     2.869879
      px      :     0.974501
      py      :     0.954734
      dz2     :     0.002908  d :     0.034136
      dxz     :     0.003874
      dyz     :     0.005315
      dx2y2   :     0.009608
      dxy     :     0.012431
  2 C s       :     3.118591  s :     3.118591
      pz      :     1.067978  p :     2.616060
      px      :     0.865802
      py      :     0.682280
      dz2     :     0.004059  d :     0.047594
      dxz     :     0.006793
      dyz     :     0.004879
      dx2y2   :     0.019682
      dxy     :     0.012180
  3 C s       :     3.182918  s :     3.182918
      pz      :     0.942273  p :     2.870306
      px      :     0.978802
      py      :     0.949231
      dz2     :     0.002919  d :     0.034129
      dxz     :     0.003294
      dyz     :     0.005889
      dx2y2   :     0.009647
      dxy     :     0.012380
  4 C s       :     3.189131  s :     3.189131
      pz      :     1.001579  p :     2.898707
      px      :     0.949256
      py      :     0.947872
      dz2     :     0.002881  d :     0.034146
      dxz     :     0.003258
      dyz     :     0.004466
      dx2y2   :     0.010825
      dxy     :     0.012716
  5 C s       :     3.145952  s :     3.145952
      pz      :     0.915145  p :     2.686336
      px      :     0.899128
      py      :     0.872063
      dz2     :     0.003031  d :     0.041821
      dxz     :     0.006137
      dyz     :     0.005954
      dx2y2   :     0.012815
      dxy     :     0.013884
  6 H s       :     0.889148  s :     0.889148
      pz      :     0.002751  p :     0.012204
      px      :     0.005801
      py      :     0.003652
  7 C s       :     3.246735  s :     3.246735
      pz      :     1.058547  p :     3.091304
      px      :     1.064500
      py      :     0.968257
      dz2     :     0.006823  d :     0.031487
      dxz     :     0.005601
      dyz     :     0.005372
      dx2y2   :     0.007573
      dxy     :     0.006119
  8 H s       :     0.890213  s :     0.890213
      pz      :     0.002728  p :     0.012216
      px      :     0.006641
      py      :     0.002847
  9 H s       :     0.853287  s :     0.853287
      pz      :     0.002472  p :     0.012395
      px      :     0.005827
      py      :     0.004097
 10 N s       :     3.376741  s :     3.376741
      pz      :     1.149558  p :     3.101705
      px      :     0.877236
      py      :     1.074912
      dz2     :     0.006597  d :     0.149077
      dxz     :     0.034061
      dyz     :     0.009966
      dx2y2   :     0.055607
      dxy     :     0.042846
 11 H s       :     0.854283  s :     0.854283
      pz      :     0.002469  p :     0.012410
      px      :     0.006748
      py      :     0.003193
 12 H s       :     0.870023  s :     0.870023
      pz      :     0.002940  p :     0.011390
      px      :     0.005341
      py      :     0.003109
 13 H s       :     0.852965  s :     0.852965
      pz      :     0.006343  p :     0.011603
      px      :     0.002508
      py      :     0.002753
 14 H s       :     0.868607  s :     0.868607
      pz      :     0.003812  p :     0.011427
      px      :     0.004963
      py      :     0.002652
 15 O s       :     3.924382  s :     3.924382
      pz      :     1.428650  p :     4.419954
      px      :     1.346051
      py      :     1.645252
      dz2     :     0.004460  d :     0.037062
      dxz     :     0.007946
      dyz     :     0.003807
      dx2y2   :     0.008869
      dxy     :     0.011980
 16 O s       :     3.926291  s :     3.926291
      pz      :     1.429330  p :     4.419428
      px      :     1.249558
      py      :     1.740540
      dz2     :     0.004436  d :     0.037046
      dxz     :     0.009507
      dyz     :     0.002230
      dx2y2   :     0.010624
      dxy     :     0.010250


                     *******************************
                     * LOEWDIN POPULATION ANALYSIS *
                     *******************************

----------------------
LOEWDIN ATOMIC CHARGES
----------------------
   0 C :   -0.072863
   1 C :   -0.040344
   2 C :   -0.014901
   3 C :   -0.040457
   4 C :   -0.072820
   5 C :    0.012191
   6 H :    0.079883
   7 C :   -0.191141
   8 H :    0.079598
   9 H :    0.096257
  10 N :    0.263471
  11 H :    0.096090
  12 H :    0.080695
  13 H :    0.089423
  14 H :    0.081419
  15 O :   -0.223203
  16 O :   -0.223297

-------------------------------
LOEWDIN REDUCED ORBITAL CHARGES
-------------------------------
  0 C s       :     2.897518  s :     2.897518
      pz      :     0.990648  p :     3.092917
      px      :     1.051408
      py      :     1.050861
      dz2     :     0.005476  d :     0.082428
      dxz     :     0.005112
      dyz     :     0.010305
      dx2y2   :     0.030205
      dxy     :     0.031331
  1 C s       :     2.901213  s :     2.901213
      pz      :     0.935611  p :     3.056987
      px      :     1.055333
      py      :     1.066044
      dz2     :     0.005602  d :     0.082143
      dxz     :     0.007684
      dyz     :     0.011163
      dx2y2   :     0.026392
      dxy     :     0.031302
  2 C s       :     2.878175  s :     2.878175
      pz      :     1.046796  p :     3.019635
      px      :     1.080226
      py      :     0.892613
      dz2     :     0.009317  d :     0.117091
      dxz     :     0.014114
      dyz     :     0.009481
      dx2y2   :     0.050688
      dxy     :     0.033490
  3 C s       :     2.901185  s :     2.901185
      pz      :     0.935865  p :     3.057178
      px      :     1.059660
      py      :     1.061654
      dz2     :     0.005630  d :     0.082094
      dxz     :     0.006196
      dyz     :     0.012635
      dx2y2   :     0.026213
      dxy     :     0.031420
  4 C s       :     2.897705  s :     2.897705
      pz      :     0.990095  p :     3.092639
      px      :     1.050790
      py      :     1.051754
      dz2     :     0.005486  d :     0.082476
      dxz     :     0.006257
      dyz     :     0.009325
      dx2y2   :     0.028829
      dxy     :     0.032580
  5 C s       :     2.879078  s :     2.879078
      pz      :     0.906301  p :     3.006691
      px      :     1.067852
      py      :     1.032538
      dz2     :     0.006312  d :     0.102040
      dxz     :     0.013265
      dyz     :     0.011228
      dx2y2   :     0.035677
      dxy     :     0.035559
  6 H s       :     0.879997  s :     0.879997
      pz      :     0.008003  p :     0.040121
      px      :     0.020111
      py      :     0.012007
  7 C s       :     2.906796  s :     2.906796
      pz      :     1.094912  p :     3.220271
      px      :     1.095931
      py      :     1.029429
      dz2     :     0.013325  d :     0.064074
      dxz     :     0.010333
      dyz     :     0.010986
      dx2y2   :     0.016761
      dxy     :     0.012669
  8 H s       :     0.880309  s :     0.880309
      pz      :     0.007935  p :     0.040093
      px      :     0.023019
      py      :     0.009140
  9 H s       :     0.861286  s :     0.861286
      pz      :     0.007229  p :     0.042456
      px      :     0.021233
      py      :     0.013994
 10 N s       :     3.031778  s :     3.031778
      pz      :     1.096491  p :     3.352520
      px      :     1.106991
      py      :     1.149038
      dz2     :     0.018342  d :     0.352231
      dxz     :     0.070865
      dyz     :     0.019013
      dx2y2   :     0.137883
      dxy     :     0.106127
 11 H s       :     0.861468  s :     0.861468
      pz      :     0.007232  p :     0.042443
      px      :     0.024459
      py      :     0.010752
 12 H s       :     0.880704  s :     0.880704
      pz      :     0.009178  p :     0.038601
      px      :     0.019335
      py      :     0.010088
 13 H s       :     0.871489  s :     0.871489
      pz      :     0.023422  p :     0.039087
      px      :     0.007310
      py      :     0.008355
 14 H s       :     0.879955  s :     0.879955
      pz      :     0.012693  p :     0.038625
      px      :     0.017717
      py      :     0.008215
 15 O s       :     3.616485  s :     3.616485
      pz      :     1.426662  p :     4.529324
      px      :     1.431975
      py      :     1.670686
      dz2     :     0.010651  d :     0.077394
      dxz     :     0.013553
      dyz     :     0.005803
      dx2y2   :     0.017086
      dxy     :     0.030301
 16 O s       :     3.616705  s :     3.616705
      pz      :     1.427140  p :     4.529174
      px      :     1.359063
      py      :     1.742971
      dz2     :     0.010655  d :     0.077418
      dxz     :     0.016009
      dyz     :     0.003266
      dx2y2   :     0.022240
      dxy     :     0.025247


                      *****************************
                      * MAYER POPULATION ANALYSIS *
                      *****************************

  NA   - Mulliken gross atomic population
  ZA   - Total nuclear charge
  QA   - Mulliken gross atomic charge
  VA   - Mayer's total valence
  BVA  - Mayer's bonded valence
  FA   - Mayer's free valence

  ATOM       NA         ZA         QA         VA         BVA        FA
  0 C      6.1232     6.0000    -0.1232     3.9378     3.9378    -0.0000
  1 C      6.0877     6.0000    -0.0877     3.8930     3.8930    -0.0000
  2 C      5.7822     6.0000     0.2178     3.7970     3.7970    -0.0000
  3 C      6.0874     6.0000    -0.0874     3.8949     3.8949     0.0000
  4 C      6.1220     6.0000    -0.1220     3.9360     3.9360     0.0000
  5 C      5.8741     6.0000     0.1259     3.9461     3.9461     0.0000
  6 H      0.9014     1.0000     0.0986     0.9598     0.9598     0.0000
  7 C      6.3695     6.0000    -0.3695     3.8827     3.8827     0.0000
  8 H      0.9024     1.0000     0.0976     0.9601     0.9601     0.0000
  9 H      0.8657     1.0000     0.1343     0.9652     0.9652    -0.0000
 10 N      6.6275     7.0000     0.3725     3.9023     3.9023    -0.0000
 11 H      0.8667     1.0000     0.1333     0.9654     0.9654    -0.0000
 12 H      0.8814     1.0000     0.1186     0.9552     0.9552     0.0000
 13 H      0.8646     1.0000     0.1354     0.9474     0.9474     0.0000
 14 H      0.8800     1.0000     0.1200     0.9549     0.9549    -0.0000
 15 O      8.3814     8.0000    -0.3814     1.9160     1.9160     0.0000
 16 O      8.3828     8.0000    -0.3828     1.9127     1.9127     0.0000

  Mayer bond orders larger than 0.1
B(  0-C ,  1-C ) :   1.4283 B(  0-C ,  5-C ) :   1.4202 B(  0-C ,  8-H ) :   0.9391 
B(  1-C ,  2-C ) :   1.3880 B(  1-C ,  9-H ) :   0.9229 B(  2-C ,  3-C ) :   1.3926 
B(  2-C , 10-N ) :   0.8183 B(  3-C ,  4-C ) :   1.4264 B(  3-C , 11-H ) :   0.9228 
B(  4-C ,  5-C ) :   1.4207 B(  4-C ,  6-H ) :   0.9386 B(  5-C ,  7-C ) :   0.9986 
B(  7-C , 12-H ) :   0.9587 B(  7-C , 13-H ) :   0.9460 B(  7-C , 14-H ) :   0.9582 
B( 10-N , 15-O ) :   1.5280 B( 10-N , 16-O ) :   1.5247 B( 15-O , 16-O ) :   0.2698 


-------
TIMINGS
-------

Total SCF time: 0 days 0 hours 1 min 57 sec 

Total time                  ....     117.068 sec
Sum of individual times     ....     116.971 sec  ( 99.9%)

Fock matrix formation       ....     112.216 sec  ( 95.9%)
  XC integration            ....       9.277 sec  (  8.3% of F)
    Basis function eval.    ....       3.512 sec  ( 37.9% of XC)
    Density eval.           ....       2.397 sec  ( 25.8% of XC)
    XC-Functional eval.     ....       0.649 sec  (  7.0% of XC)
    XC-Potential eval.      ....       2.476 sec  ( 26.7% of XC)
Diagonalization             ....       0.120 sec  (  0.1%)
Density matrix formation    ....       0.010 sec  (  0.0%)
Population analysis         ....       0.029 sec  (  0.0%)
Initial guess               ....       1.082 sec  (  0.9%)
Orbital Transformation      ....       0.000 sec  (  0.0%)
Orbital Orthonormalization  ....       0.000 sec  (  0.0%)
DIIS solution               ....       0.042 sec  (  0.0%)
SOSCF solution              ....       0.066 sec  (  0.1%)
Grid generation             ....       3.406 sec  (  2.9%)

-------------------------   --------------------
FINAL SINGLE POINT ENERGY      -475.802522745454
-------------------------   --------------------


                            ***************************************
                            *     ORCA property calculations      *
                            ***************************************

                                    ---------------------
                                    Active property flags
                                    ---------------------
   (+) Dipole Moment


------------------------------------------------------------------------------
                       ORCA ELECTRIC PROPERTIES CALCULATION
------------------------------------------------------------------------------

Dipole Moment Calculation                       ... on
Quadrupole Moment Calculation                   ... off
Polarizability Calculation                      ... off
GBWName                                         ... p-nitrotolueno.gbw
Electron density file                           ... p-nitrotolueno.scfp.tmp
The origin for moment calculation is the CENTER OF MASS  = (-5.918640,  0.126645 -0.055560)

-------------
DIPOLE MOMENT
-------------
                                X             Y             Z
Electronic contribution:      0.99312     -12.09388      -0.15982
Nuclear contribution   :     -1.16636      14.17224       0.20283
                        -----------------------------------------
Total Dipole Moment    :     -0.17325       2.07836       0.04301
                        -----------------------------------------
Magnitude (a.u.)       :      2.08601
Magnitude (Debye)      :      5.30222


-------------------------------------------------------------------------------
                               ORCA SCF HESSIAN
-------------------------------------------------------------------------------

Hessian of the Kohn-Sham DFT energy:
Kohn-Sham wavefunction type                      ... RKS
Hartree-Fock exchange scaling                    ...    0.200
Number of operators                              ...    1
Number of atoms                                  ...   17
Basis set dimensions                             ...  175
Integral neglect threshold                       ... 1.0e-10
Integral primitive cutoff                        ... 1.0e-11

Setting up DFT Hessian calculations              ... 
Electron density on the grid                     ... found on disk
Electron density on the final grid               ... found on disk
Building xc-kernel on the grid                   ... done   (      0.1 sec)
Building xc-kernel on the final grid             ... done   (      0.3 sec)
                                                     done   (      0.5 sec)

Nuclear repulsion Hessian                        ... done   (      0.0 sec)

----------------------------------------------
Forming right-hand sides of CP-SCF equations     ...
----------------------------------------------
One electron integral derivatives                ... done   (      0.6 sec)
Transforming the overlap derivative matrices     ... done   (      0.3 sec)
Making the Q(x) pseudodensities                  ... done   (      0.3 sec)
Adding the E*S(x)*S(y) terms to the Hessian      ... done   (      0.1 sec)
Calculating energy weighted overlap derivatives  ... done   (      0.0 sec)
Two electron integral derivatives                ... done   (     72.8 sec)
Exchange-correlation integral derivatives        ... done   (    120.4 sec)
tr(F(y)Q(x)) contribution to the Hessian         ... done   (      0.0 sec)
Response fock operator R(S(x))                   ... done   (    344.3 sec)
XC Response fock operator R(S(x))                ... done   (     53.1 sec)
tr(F(y)S(x)) contribution to the Hessian         ... done   (      0.0 sec)
Transforming and finalizing RHSs                 ... done   (      0.3 sec)

----------------------------------------------
Solving the CP-SCF equations                     ...
----------------------------------------------
     CP-SCF ITERATION   0: 
     CP-SCF ITERATION   1:      0.009973041304
     CP-SCF ITERATION   2:      0.001264290320
     CP-SCF ITERATION   3:      0.000344613580
     CP-SCF ITERATION   4:      0.000036924918
     CP-SCF ITERATION   5:      0.000004253355
     CP-SCF ITERATION   6:      0.000000959637

                                                 ... done   (   3545.1 sec)
Forming perturbed density Hessian contributions  ... done   (      0.1 sec)
Making the perturbed densities                   ... done   (      0.3 sec)
2nd integral derivative contribs                 ... done   (    497.1 sec)
Exchange-correlation Hessian                     ... done   (    109.5 sec)
Dipol derivatives                                ... done   (      3.5 sec)

Total SCF Hessian time: 0 days 1 hours 19 min 8 sec 

Writing the Hessian file to the disk             ... done


-----------------------
VIBRATIONAL FREQUENCIES
-----------------------

   0:         0.00 cm**-1
   1:         0.00 cm**-1
   2:         0.00 cm**-1
   3:         0.00 cm**-1
   4:         0.00 cm**-1
   5:         0.00 cm**-1
   6:        88.84 cm**-1
   7:       105.26 cm**-1
   8:       107.00 cm**-1
   9:       223.58 cm**-1
  10:       290.17 cm**-1
  11:       359.16 cm**-1
  12:       360.39 cm**-1
  13:       429.14 cm**-1
  14:       493.39 cm**-1
  15:       532.74 cm**-1
  16:       626.84 cm**-1
  17:       646.67 cm**-1
  18:       701.19 cm**-1
  19:       759.45 cm**-1
  20:       802.29 cm**-1
  21:       862.07 cm**-1
  22:       863.90 cm**-1
  23:       866.43 cm**-1
  24:       996.07 cm**-1
  25:      1001.96 cm**-1
  26:      1017.26 cm**-1
  27:      1027.80 cm**-1
  28:      1070.96 cm**-1
  29:      1132.16 cm**-1
  30:      1142.22 cm**-1
  31:      1208.00 cm**-1
  32:      1247.71 cm**-1
  33:      1329.64 cm**-1
  34:      1354.49 cm**-1
  35:      1367.72 cm**-1
  36:      1421.83 cm**-1
  37:      1436.31 cm**-1
  38:      1493.33 cm**-1
  39:      1507.88 cm**-1
  40:      1535.42 cm**-1
  41:      1578.32 cm**-1
  42:      1643.09 cm**-1
  43:      1644.27 cm**-1
  44:      3043.82 cm**-1
  45:      3116.58 cm**-1
  46:      3121.57 cm**-1
  47:      3171.35 cm**-1
  48:      3172.19 cm**-1
  49:      3197.44 cm**-1
  50:      3197.95 cm**-1


------------
NORMAL MODES
------------

These modes are the cartesian displacements weighted by the diagonal matrix
M(i,i)=1/sqrt(m[i]) where m[i] is the mass of the displaced atom
Thus, these vectors are normalized but *not* orthogonal

                  0          1          2          3          4          5    
      0       0.000000   0.000000   0.000000   0.000000   0.000000   0.000000
      1       0.000000   0.000000   0.000000   0.000000   0.000000   0.000000
      2       0.000000   0.000000   0.000000   0.000000   0.000000   0.000000
      3       0.000000   0.000000   0.000000   0.000000   0.000000   0.000000
      4       0.000000   0.000000   0.000000   0.000000   0.000000   0.000000
      5       0.000000   0.000000   0.000000   0.000000   0.000000   0.000000
      6       0.000000   0.000000   0.000000   0.000000   0.000000   0.000000
      7       0.000000   0.000000   0.000000   0.000000   0.000000   0.000000
      8       0.000000   0.000000   0.000000   0.000000   0.000000   0.000000
      9       0.000000   0.000000   0.000000   0.000000   0.000000   0.000000
     10       0.000000   0.000000   0.000000   0.000000   0.000000   0.000000
     11       0.000000   0.000000   0.000000   0.000000   0.000000   0.000000
     12       0.000000   0.000000   0.000000   0.000000   0.000000   0.000000
     13       0.000000   0.000000   0.000000   0.000000   0.000000   0.000000
     14       0.000000   0.000000   0.000000   0.000000   0.000000   0.000000
     15       0.000000   0.000000   0.000000   0.000000   0.000000   0.000000
     16       0.000000   0.000000   0.000000   0.000000   0.000000   0.000000
     17       0.000000   0.000000   0.000000   0.000000   0.000000   0.000000
     18       0.000000   0.000000   0.000000   0.000000   0.000000   0.000000
     19       0.000000   0.000000   0.000000   0.000000   0.000000   0.000000
     20       0.000000   0.000000   0.000000   0.000000   0.000000   0.000000
     21       0.000000   0.000000   0.000000   0.000000   0.000000   0.000000
     22       0.000000   0.000000   0.000000   0.000000   0.000000   0.000000
     23       0.000000   0.000000   0.000000   0.000000   0.000000   0.000000
     24       0.000000   0.000000   0.000000   0.000000   0.000000   0.000000
     25       0.000000   0.000000   0.000000   0.000000   0.000000   0.000000
     26       0.000000   0.000000   0.000000   0.000000   0.000000   0.000000
     27       0.000000   0.000000   0.000000   0.000000   0.000000   0.000000
     28       0.000000   0.000000   0.000000   0.000000   0.000000   0.000000
     29       0.000000   0.000000   0.000000   0.000000   0.000000   0.000000
     30       0.000000   0.000000   0.000000   0.000000   0.000000   0.000000
     31       0.000000   0.000000   0.000000   0.000000   0.000000   0.000000
     32       0.000000   0.000000   0.000000   0.000000   0.000000   0.000000
     33       0.000000   0.000000   0.000000   0.000000   0.000000   0.000000
     34       0.000000   0.000000   0.000000   0.000000   0.000000   0.000000
     35       0.000000   0.000000   0.000000   0.000000   0.000000   0.000000
     36       0.000000   0.000000   0.000000   0.000000   0.000000   0.000000
     37       0.000000   0.000000   0.000000   0.000000   0.000000   0.000000
     38       0.000000   0.000000   0.000000   0.000000   0.000000   0.000000
     39       0.000000   0.000000   0.000000   0.000000   0.000000   0.000000
     40       0.000000   0.000000   0.000000   0.000000   0.000000   0.000000
     41       0.000000   0.000000   0.000000   0.000000   0.000000   0.000000
     42       0.000000   0.000000   0.000000   0.000000   0.000000   0.000000
     43       0.000000   0.000000   0.000000   0.000000   0.000000   0.000000
     44       0.000000   0.000000   0.000000   0.000000   0.000000   0.000000
     45       0.000000   0.000000   0.000000   0.000000   0.000000   0.000000
     46       0.000000   0.000000   0.000000   0.000000   0.000000   0.000000
     47       0.000000   0.000000   0.000000   0.000000   0.000000   0.000000
     48       0.000000   0.000000   0.000000   0.000000   0.000000   0.000000
     49       0.000000   0.000000   0.000000   0.000000   0.000000   0.000000
     50       0.000000   0.000000   0.000000   0.000000   0.000000   0.000000
                  6          7          8          9         10         11    
      0       0.005138   0.017431  -0.014230  -0.081577   0.016045   0.138782
      1       0.000119   0.003338  -0.002401   0.069798   0.002871   0.068150
      2       0.032980  -0.163382   0.142735  -0.001252  -0.186008   0.006260
      3       0.001497   0.021380  -0.009462  -0.168460  -0.016574  -0.041335
      4       0.003270   0.004873  -0.001327   0.041326  -0.000896   0.069478
      5       0.033997  -0.212780   0.103188  -0.014188   0.148138   0.003312
      6       0.004862   0.015494   0.006032  -0.184824  -0.029611  -0.084902
      7       0.000278   0.003249   0.001242  -0.014958  -0.000879  -0.003516
      8       0.008232  -0.147315  -0.055973  -0.019384   0.297924  -0.010023
      9       0.006465   0.015918   0.023714  -0.159265  -0.012863  -0.021954
     10      -0.002876   0.002243   0.004062  -0.067615  -0.001895  -0.082061
     11      -0.012463  -0.149349  -0.242509  -0.019778   0.146847  -0.010539
     12       0.009480   0.011564   0.022828  -0.068370   0.020685   0.152542
     13       0.000817   0.002271   0.004347  -0.081707   0.002107  -0.056471
     14      -0.013311  -0.090668  -0.241809  -0.012371  -0.185488   0.024384
     15       0.011030   0.005470  -0.001197  -0.019970   0.025302   0.174752
     16       0.000758   0.002055   0.000518  -0.001283  -0.002157   0.002454
     17       0.004908  -0.021739  -0.009513  -0.000630  -0.248770   0.017533
     18       0.012334   0.005805   0.037277  -0.031044   0.026628   0.218255
     19      -0.001100   0.000426   0.007171  -0.137485   0.006501  -0.154452
     20      -0.030694  -0.031150  -0.383580  -0.013376  -0.263446   0.038579
     21      -0.017890  -0.033667  -0.009749   0.265033  -0.011985  -0.197282
     22      -0.000873  -0.010835  -0.003949   0.021924  -0.020765  -0.030162
     23      -0.021459   0.295520   0.114706   0.025678   0.137217  -0.020461
     24       0.004406   0.017517  -0.028969  -0.054563   0.025133   0.193644
     25       0.002262   0.003792  -0.005502   0.130496   0.008957   0.184069
     26       0.049329  -0.162478   0.308385   0.006673  -0.263811   0.004949
     27      -0.000616   0.023843  -0.019216  -0.210394  -0.022576  -0.106985
     28       0.004058   0.005308  -0.003851   0.097417  -0.002981   0.164021
     29       0.050342  -0.239707   0.216411  -0.016010   0.222012   0.005079
     30      -0.001187  -0.005258  -0.001750   0.013671  -0.007810  -0.056713
     31      -0.000140   0.000109   0.000053   0.000880   0.005329   0.006178
     32      -0.003518   0.049202   0.019557   0.001160   0.073605  -0.005950
     33       0.007620   0.014069   0.035658  -0.190933  -0.021358  -0.074862
     34      -0.003734   0.001172   0.006301  -0.129016  -0.005552  -0.194907
     35      -0.028392  -0.134565  -0.359641  -0.026203   0.219022  -0.024422
     36       0.182983   0.008090  -0.044997   0.427273  -0.026133  -0.402137
     37       0.026241   0.105721   0.034746  -0.181411   0.142673   0.284168
     38       0.488381   0.540726   0.081444   0.151576   0.309443  -0.105954
     39      -0.614242  -0.191181   0.072023   0.224354  -0.011667  -0.265821
     40      -0.030359  -0.270379  -0.093556   0.028487  -0.402362  -0.047325
     41      -0.104557   0.355348   0.156462   0.017186   0.261912  -0.025455
     42       0.311185   0.038415  -0.064471   0.421510  -0.040514  -0.367043
     43      -0.002611   0.110178   0.039159   0.242907   0.159280  -0.366063
     44      -0.479858   0.262855   0.213651  -0.067430   0.277094   0.026364
     45      -0.004894  -0.023328   0.031003   0.149992   0.008589   0.013786
     46       0.005891  -0.000664   0.005782  -0.207093   0.007197  -0.107428
     47      -0.006834   0.229093  -0.333762   0.012921  -0.096894  -0.001117
     48      -0.003449  -0.007044  -0.042136   0.114488   0.009447  -0.003960
     49      -0.006559  -0.002074  -0.006720   0.227494   0.010254   0.134359
     50      -0.011280   0.058237   0.443972   0.014236  -0.098046   0.003563
                 12         13         14         15         16         17    
      0      -0.068301   0.013789   0.005458   0.007483  -0.145232   0.226381
      1      -0.162105   0.001369  -0.005582  -0.092782   0.143244  -0.275342
      2       0.005662  -0.213720  -0.063424  -0.001082   0.001306   0.017638
      3      -0.056162  -0.019718   0.010779   0.234343  -0.111118  -0.180240
      4      -0.110045  -0.006058  -0.004568  -0.063807   0.170518  -0.303736
      5      -0.011274   0.215158  -0.112260   0.023485  -0.020298  -0.021863
      6       0.004410   0.001472  -0.023599   0.169890  -0.018328  -0.111504
      7       0.076558   0.000091  -0.005970   0.013603   0.224555  -0.007248
      8      -0.017680   0.001522   0.253434   0.014376   0.015602  -0.010606
      9       0.078477   0.021039   0.012588   0.221256   0.087812  -0.225883
     10      -0.083184   0.006162  -0.003891   0.099837   0.183445   0.273850
     11       0.003799  -0.216391  -0.109239   0.021342  -0.001003  -0.017961
     12       0.057787  -0.027036   0.008325  -0.008015   0.114051   0.180447
     13      -0.138932  -0.002557  -0.004839   0.091913   0.161141   0.310392
     14       0.015768   0.212070  -0.065917   0.002032   0.026184   0.022438
     15       0.003129  -0.005875  -0.024933  -0.079666   0.009691   0.111920
     16      -0.278936  -0.000563  -0.005281  -0.006481  -0.141426   0.007869
     17       0.002286   0.001432   0.260723  -0.009314   0.006629   0.010522
     18      -0.010206  -0.050468   0.042123  -0.103807  -0.011437   0.240161
     19      -0.043730  -0.004039  -0.002533   0.236018   0.347926   0.222623
     20       0.017070   0.422882  -0.373882  -0.000404  -0.006164   0.027283
     21       0.050827   0.009426  -0.000521   0.033649   0.028512   0.061203
     22      -0.334560   0.000688   0.007123   0.002827  -0.325217   0.002045
     23      -0.012609   0.000706  -0.002235   0.003252  -0.015567   0.005739
     24      -0.028946   0.031426   0.030800  -0.063813  -0.047891   0.272720
     25      -0.080911   0.002181  -0.004800  -0.251191   0.346236  -0.175974
     26       0.019080  -0.429893  -0.371659  -0.009470  -0.009896   0.023035
     27       0.025410  -0.040927   0.040392   0.342548  -0.053690  -0.254726
     28      -0.221223  -0.012245  -0.001584  -0.228659   0.082549  -0.190208
     29      -0.006393   0.467360  -0.423233   0.035080  -0.056366  -0.018699
     30      -0.014066   0.002698  -0.010638  -0.247889  -0.000541  -0.013392
     31       0.260151   0.000259   0.001469  -0.019533   0.001849  -0.000987
     32      -0.004382   0.000543   0.102113  -0.024326   0.003052  -0.001040
     33       0.027118   0.048047   0.042512   0.301725   0.054317  -0.280037
     34      -0.182250   0.012736  -0.000456   0.280356   0.091033   0.148731
     35      -0.002181  -0.472876  -0.415022   0.032999  -0.045612  -0.033272
     36       0.072472   0.013027   0.014719   0.115004   0.025784   0.111150
     37      -0.371027  -0.006320  -0.123370  -0.124423  -0.317970  -0.069923
     38      -0.004915   0.000064  -0.132659   0.033199  -0.004592   0.028265
     39       0.058040   0.010878  -0.012929   0.074410   0.028362   0.092116
     40      -0.324267   0.004438   0.320486   0.009783  -0.344193   0.007013
     41      -0.014002  -0.000272  -0.107008   0.007279  -0.008032   0.008864
     42       0.069683   0.012417   0.028919   0.099682   0.025871   0.104103
     43      -0.300919   0.004980  -0.138451   0.139875  -0.319998   0.080375
     44      -0.018344  -0.000763  -0.125686  -0.010705  -0.004284  -0.007045
     45      -0.057500   0.001094   0.001977  -0.107981   0.101954  -0.025460
     46       0.331866   0.004735   0.005394  -0.316151  -0.146259  -0.007183
     47       0.004925  -0.009092  -0.043823  -0.014309   0.006601  -0.002745
     48       0.003682   0.000189   0.004519  -0.157870  -0.076840  -0.027591
     49       0.310573  -0.004420   0.007487   0.295495  -0.160652   0.000743
     50       0.010068   0.008884  -0.043701  -0.010544  -0.010419  -0.002570
                 18         19         20         21         22         23    
      0       0.006326  -0.002955  -0.138175   0.020860   0.012039   0.227515
      1       0.002702  -0.001812  -0.100994  -0.010287   0.000104  -0.037703
      2      -0.182538  -0.083505  -0.009593   0.081588  -0.072507  -0.019679
      3      -0.025738  -0.011862  -0.187484   0.020231   0.010737   0.200182
      4      -0.002166  -0.003859  -0.146891  -0.000197   0.002835   0.046043
      5       0.180250  -0.003448  -0.029636   0.064770  -0.065033  -0.008265
      6       0.013347   0.017705  -0.016725   0.011970   0.000813  -0.006045
      7       0.013851   0.016100   0.164803   0.002776   0.000116  -0.009130
      8      -0.150730  -0.197662   0.032138  -0.126252  -0.006802   0.071427
      9      -0.009101   0.012617   0.210691  -0.030830  -0.010883  -0.198843
     10      -0.000421  -0.001987  -0.114816  -0.004032  -0.002181   0.013878
     11       0.181960  -0.001093   0.008739   0.048646   0.071678  -0.056666
     12       0.028585   0.019027   0.152775  -0.032989  -0.011953  -0.210031
     13       0.004949  -0.000254  -0.077701  -0.014553  -0.003148  -0.072994
     14      -0.181110  -0.080570   0.018641   0.063004   0.079743  -0.072098
     15      -0.021952  -0.008449   0.005060   0.001573  -0.000220  -0.006616
     16      -0.010657  -0.009198  -0.028406   0.011714   0.001354   0.049978
     17       0.236294   0.095281  -0.029713  -0.026098  -0.000717   0.026265
     18       0.050237  -0.024224   0.121090   0.048136   0.059178  -0.170233
     19       0.017578   0.004090  -0.028869  -0.033829   0.001216  -0.221150
     20      -0.444549   0.270620   0.074798  -0.539659  -0.563677   0.352354
     21      -0.003543  -0.002893  -0.024188   0.003489  -0.004341   0.008416
     22      -0.003075   0.006535   0.268344  -0.004519  -0.002136  -0.109279
     23       0.038944   0.023707   0.013213  -0.027767  -0.002458   0.011056
     24       0.033790  -0.028894  -0.125616   0.069276  -0.038442   0.137814
     25       0.015763   0.004245  -0.048197  -0.031923  -0.009904  -0.196526
     26      -0.447249   0.271282   0.050595  -0.628975   0.502042   0.311152
     27      -0.028516  -0.049867  -0.030718   0.052451  -0.036053   0.129595
     28      -0.013315  -0.025283  -0.390954   0.011591  -0.001483   0.145381
     29       0.279423   0.511639  -0.020447  -0.315874   0.430022   0.158322
     30       0.017905  -0.034697  -0.011504  -0.012713  -0.001021  -0.014075
     31       0.006101   0.001780   0.177708   0.040462   0.005751   0.237861
     32      -0.193327   0.362683  -0.028796   0.098937   0.005341  -0.052755
     33      -0.023765  -0.045553   0.095042   0.000532   0.042707  -0.185351
     34      -0.012727  -0.025193  -0.382389   0.007133   0.006511   0.119458
     35       0.281571   0.511748  -0.008540  -0.248953  -0.463003   0.191466
     36       0.011258   0.001173  -0.033668   0.003860   0.007145   0.019305
     37      -0.139093  -0.091758   0.286277   0.083550  -0.008430  -0.185641
     38      -0.101252  -0.091614   0.000598   0.086005   0.012759  -0.050844
     39      -0.019321  -0.013534  -0.022795   0.012384   0.013478   0.001056
     40       0.331820   0.251525   0.295633  -0.227374  -0.013603  -0.002776
     41      -0.074117  -0.059023   0.004353   0.047580   0.004231  -0.026924
     42       0.031487   0.030557  -0.011450  -0.034868   0.003789   0.019057
     43      -0.154927  -0.102018   0.293998   0.089644   0.015548  -0.195777
     44      -0.097018  -0.084083   0.002406   0.078905  -0.000897  -0.047308
     45       0.000830   0.018960   0.193574   0.048144   0.006652   0.263463
     46      -0.005602  -0.002680  -0.049745  -0.003693  -0.000561  -0.021158
     47       0.057815  -0.106978   0.025925  -0.020261  -0.001468   0.038073
     48      -0.010914   0.002219  -0.184459  -0.042298  -0.006163  -0.259013
     49      -0.006472  -0.004009  -0.080672  -0.011016  -0.001541  -0.063760
     50       0.057052  -0.108729  -0.010095  -0.029005  -0.001192  -0.011843
                 24         25         26         27         28         29    
      0       0.006992   0.011082  -0.064519   0.196387   0.010758  -0.111994
      1       0.001633   0.000771  -0.004042  -0.018456   0.000965   0.072762
      2      -0.080217  -0.057599  -0.008784   0.026587  -0.039704  -0.005658
      3      -0.008079  -0.011600  -0.009990  -0.190241  -0.020247  -0.055690
      4      -0.002180  -0.002204  -0.033803  -0.041740  -0.007437  -0.021770
      5       0.091498   0.090108  -0.003493  -0.021533  -0.001317  -0.005575
      6      -0.000259   0.003974   0.024919  -0.002703   0.000987   0.031650
      7      -0.000307   0.002345  -0.000164   0.049199  -0.015677  -0.390413
      8      -0.000088  -0.043451   0.002369  -0.000111   0.002852  -0.003742
      9       0.008332  -0.005491  -0.024124   0.193086   0.021119   0.059073
     10       0.002388  -0.001723   0.031305  -0.007353  -0.004405  -0.013873
     11      -0.091892   0.089725   0.000530   0.014667   0.002542   0.005678
     12      -0.006989   0.000309  -0.054317  -0.198482  -0.002787   0.098810
     13      -0.001345  -0.000034  -0.003744  -0.050528   0.000086   0.090916
     14       0.080815  -0.058311  -0.003416  -0.010246  -0.041826   0.014754
     15      -0.000087   0.000948   0.049473   0.001787  -0.014781  -0.000245
     16      -0.000124  -0.000393   0.003725   0.029400   0.006762   0.015013
     17       0.000382  -0.010198   0.005424  -0.016969   0.146521  -0.015925
     18       0.051069  -0.050736  -0.063286  -0.360255  -0.031444   0.077646
     19       0.003087   0.003312   0.004567   0.192428   0.009071   0.142621
     20      -0.448263   0.363852  -0.024025  -0.089931   0.158231  -0.001127
     21      -0.001895  -0.001452   0.146404   0.006651   0.013540  -0.000641
     22      -0.000065  -0.001270   0.013406  -0.016026   0.011250  -0.020542
     23      -0.000805   0.014683   0.013584   0.019677  -0.151845   0.017206
     24      -0.037607  -0.020822  -0.082782   0.328577  -0.000516  -0.098487
     25      -0.003687   0.005371  -0.027614   0.248595   0.011399   0.123067
     26       0.444681   0.368216   0.013842  -0.014770   0.155097  -0.018077
     27       0.050087   0.046854   0.072736  -0.400304  -0.053779  -0.389650
     28       0.004342   0.012716  -0.163050   0.262220   0.037376   0.455647
     29      -0.528481  -0.588540   0.007126  -0.015004   0.017945  -0.032580
     30       0.000022  -0.002674   0.000221   0.000689  -0.000296  -0.003933
     31       0.000046  -0.000946   0.000653  -0.008179   0.005256   0.047555
     32      -0.000024   0.028479   0.000039  -0.000077  -0.001526   0.000725
     33      -0.053808   0.064076   0.030902   0.352985   0.042603   0.308951
     34      -0.006402   0.013699   0.157186   0.340985   0.044231   0.503638
     35       0.531329  -0.580732   0.000421   0.064374   0.026336   0.033948
     36       0.003554  -0.003673  -0.216008  -0.008269   0.037504  -0.002860
     37      -0.003945  -0.037014   0.606922  -0.037663   0.298991  -0.055600
     38       0.004330  -0.036298  -0.075741  -0.040641   0.283409  -0.034078
     39       0.008026  -0.005709  -0.271174  -0.018022   0.054326  -0.003914
     40      -0.001696   0.081437  -0.048109   0.058961  -0.717637   0.071346
     41       0.001393  -0.013660  -0.030942  -0.011489   0.103192  -0.013108
     42       0.002533   0.017416  -0.139041   0.009957  -0.145059   0.020337
     43       0.006901  -0.038424  -0.612974  -0.100720   0.324609  -0.052082
     44      -0.001098  -0.032738   0.048337  -0.031997   0.254366  -0.030892
     45      -0.000083   0.000298  -0.003520  -0.015568   0.002754   0.096173
     46       0.000065   0.000048  -0.003900  -0.007418   0.000856   0.050407
     47       0.001024  -0.005469  -0.000566  -0.001621   0.000556   0.009657
     48       0.000051   0.000732  -0.005479   0.016103  -0.002871  -0.102924
     49      -0.000016   0.000074   0.003544  -0.004540   0.000383   0.034196
     50      -0.001019  -0.005444  -0.000290   0.001412   0.000009  -0.009307
                 30         31         32         33         34         35    
      0       0.020260  -0.016292  -0.004269  -0.015562  -0.163189   0.013796
      1      -0.073061  -0.064813   0.062915  -0.009834  -0.260841   0.006529
      2      -0.000551  -0.002781  -0.000020  -0.001529  -0.018454   0.000788
      3       0.020381  -0.014017  -0.072335   0.023448  -0.172011  -0.001802
      4       0.068806   0.052630  -0.087771  -0.060027   0.209504  -0.018369
      5       0.003252   0.000019  -0.008021   0.000852  -0.011530  -0.000701
      6      -0.022510  -0.005124   0.000287   0.096455   0.395281  -0.018460
      7      -0.000699   0.060388   0.001236   0.007928   0.033234   0.197761
      8      -0.002162   0.000216   0.000093   0.009313   0.038185   0.001159
      9       0.032019   0.005019   0.084612   0.013676  -0.136708   0.006448
     10      -0.064755   0.054484  -0.075704   0.062971  -0.233789  -0.012929
     11       0.001762   0.001898   0.007198   0.002774  -0.018296   0.000179
     12       0.007192   0.026959  -0.006255  -0.016799  -0.202496  -0.012069
     13       0.074845  -0.062107   0.062631   0.007092   0.229852  -0.000658
     14       0.003275   0.001302  -0.000238  -0.001633  -0.016992  -0.001708
     15      -0.030894   0.000987  -0.027000  -0.093543   0.352109  -0.002105
     16      -0.001682  -0.007389   0.347576  -0.006993   0.026916  -0.001230
     17      -0.003019  -0.002417   0.001739  -0.009052   0.034011   0.004046
     18      -0.216704   0.292081   0.282415   0.260466   0.125629   0.086055
     19       0.415520  -0.459097  -0.339258  -0.407697  -0.267449  -0.143592
     20      -0.021543   0.027628   0.033016   0.019923   0.017590   0.009265
     21       0.037997  -0.000827   0.010843   0.029031  -0.073798   0.002757
     22       0.002886   0.008222  -0.140437   0.002443  -0.004507  -0.019304
     23       0.003719   0.000674  -0.000818   0.002825  -0.006935  -0.005852
     24      -0.149321  -0.215825  -0.225516   0.189873   0.083450  -0.066378
     25      -0.449451  -0.500387  -0.377618   0.440728   0.283922  -0.162148
     26      -0.014183  -0.021857  -0.016168   0.023902   0.001981  -0.004881
     27      -0.222583  -0.223722   0.058405  -0.284263  -0.028876  -0.043216
     28       0.445049   0.375040  -0.302670   0.402055  -0.014478   0.037111
     29      -0.016783  -0.018486   0.003071  -0.020347  -0.008787  -0.001228
     30      -0.005276  -0.000477  -0.000748  -0.001298   0.028189   0.059581
     31      -0.000536   0.005563   0.010269  -0.000064  -0.000962  -0.727727
     32      -0.000485   0.000053   0.000247  -0.000154   0.002664  -0.004679
     33      -0.148442   0.162059  -0.006065  -0.214952  -0.030375   0.034683
     34      -0.476863   0.409649  -0.299714  -0.441828   0.016114   0.041583
     35      -0.018860   0.018883  -0.003242  -0.028015   0.002506   0.006265
     36      -0.034626   0.005642   0.080166  -0.025572   0.073097  -0.026276
     37       0.112367  -0.000665  -0.306361   0.061668  -0.168531   0.059357
     38      -0.025637   0.005310  -0.015650  -0.037363   0.109155   0.019448
     39      -0.063890  -0.001784   0.014572  -0.093047   0.307926  -0.000761
     40      -0.009789   0.017300  -0.227377  -0.011126   0.030828   0.018298
     41      -0.007902  -0.001767   0.025661  -0.011592   0.040707  -0.018116
     42      -0.023937  -0.006973  -0.024393  -0.027731   0.079425   0.009704
     43      -0.114691  -0.000878  -0.309119  -0.066775   0.173378   0.058211
     44       0.021313   0.004323  -0.027840   0.034552  -0.105975   0.024692
     45       0.004741  -0.016085  -0.004487  -0.006466  -0.027078   0.300565
     46       0.001901  -0.014301  -0.000787  -0.008832  -0.035884   0.290479
     47       0.000445  -0.001700  -0.000475  -0.000766  -0.002906   0.032437
     48       0.005650   0.018253   0.004426  -0.007655  -0.035441  -0.343754
     49      -0.001286  -0.011640   0.000060   0.007648   0.033061   0.238423
     50       0.000534   0.001587   0.000382  -0.000570  -0.003021  -0.029005
                 36         37         38         39         40         41    
      0       0.004854  -0.046371   0.000504  -0.002811   0.093476   0.126059
      1       0.005324   0.141126   0.035531  -0.006657   0.062236   0.041270
      2       0.000984  -0.001089  -0.000843   0.001589   0.009029   0.011735
      3      -0.005380  -0.017625  -0.026611  -0.000328  -0.122373  -0.097859
      4      -0.005091  -0.141794  -0.016400   0.006105   0.122898   0.082079
      5      -0.000459  -0.003390  -0.002972   0.000266  -0.009439  -0.007966
      6      -0.000455   0.124535   0.060167   0.001929   0.012256   0.089384
      7      -0.001432   0.009812   0.004650  -0.002105  -0.147139   0.008254
      8       0.000022   0.012011   0.005801   0.000130  -0.001194   0.008672
      9       0.006198  -0.039705  -0.029056  -0.002486   0.100441  -0.084419
     10      -0.008591   0.136471   0.012735   0.006484   0.140419  -0.098944
     11       0.000602  -0.002126  -0.002428   0.000019   0.012223  -0.009678
     12      -0.005456  -0.023383   0.006320   0.004131  -0.101916   0.131886
     13       0.008554  -0.145908  -0.035737  -0.008103   0.046574  -0.020522
     14       0.000071  -0.005621   0.001372   0.002064  -0.009998   0.013203
     15      -0.003440   0.153358   0.039919   0.003187   0.011456  -0.256796
     16       0.028654   0.013463   0.002669  -0.006339  -0.144249  -0.019686
     17      -0.002477   0.014719   0.004556  -0.017455  -0.000832  -0.024796
     18       0.022755  -0.326544  -0.083675  -0.019483   0.179869   0.046735
     19      -0.036473   0.272511   0.093460   0.029493  -0.398281   0.130390
     20       0.003669  -0.025918  -0.013196  -0.001693   0.012362   0.007707
     21       0.016703  -0.073388   0.039742   0.003713  -0.003037   0.017693
     22      -0.146224  -0.011310   0.005351   0.032422   0.036527   0.000502
     23      -0.021310  -0.008119   0.006198  -0.051322   0.000631   0.001708
     24      -0.009455  -0.278971  -0.067286   0.010780  -0.113023   0.067805
     25      -0.030377  -0.323741  -0.102567   0.025666  -0.421421  -0.117828
     26       0.000645  -0.032547  -0.001739   0.000410  -0.016544   0.003471
     27       0.006207  -0.264913  -0.041386   0.004687   0.232773   0.070464
     28      -0.022992   0.204914  -0.003332  -0.000358  -0.434397  -0.158562
     29      -0.001567  -0.021203  -0.002273  -0.003668   0.014404   0.003446
     30      -0.000821   0.027813   0.024279   0.001100   0.001340   0.626298
     31       0.007875   0.003139   0.001861  -0.002646  -0.005166   0.050977
     32       0.000161   0.002634   0.002297   0.000263   0.000014   0.059744
     33       0.003787  -0.227911  -0.041788  -0.005836  -0.159026   0.046439
     34      -0.016013  -0.246014  -0.003768  -0.000500  -0.464825   0.174014
     35      -0.001666  -0.026681  -0.005360  -0.004487  -0.023894   0.007899
     36      -0.182514   0.014341   0.028022   0.376947   0.000047  -0.047110
     37       0.449614   0.042821  -0.326744  -0.253969   0.033253   0.230501
     38       0.227523   0.222533  -0.392904   0.499104   0.004108   0.131836
     39      -0.033835   0.411409  -0.660711  -0.008411  -0.001618   0.208865
     40       0.567300   0.053041  -0.062203   0.267959   0.031155   0.009504
     41      -0.240982   0.046425  -0.080981  -0.111834   0.000928   0.028454
     42       0.037792   0.092152  -0.119311  -0.444529  -0.005866   0.035552
     43       0.476726  -0.001224   0.308592  -0.317490   0.031875  -0.218661
     44       0.275564  -0.206070   0.366752   0.393829   0.002263  -0.141646
     45      -0.002679  -0.022019  -0.012943   0.000628   0.010893  -0.249660
     46      -0.002709  -0.018317  -0.010000   0.000620   0.010110  -0.149528
     47      -0.000179  -0.002232  -0.001372  -0.000026   0.001188  -0.025677
     48       0.003403  -0.023883  -0.014488  -0.001690  -0.013176  -0.270079
     49      -0.002429   0.014027   0.007848   0.001026   0.008610   0.107079
     50       0.000398  -0.002129  -0.001239  -0.000243  -0.001113  -0.023875
                 42         43         44         45         46         47    
      0      -0.083475  -0.177283   0.000523   0.001885   0.000869   0.069246
      1      -0.318667  -0.078297  -0.000942  -0.001013  -0.000219  -0.031688
      2      -0.011897  -0.016596   0.000039   0.000457   0.000159   0.005564
      3      -0.060239   0.227172   0.000045  -0.000263   0.000021  -0.016629
      4       0.244259  -0.092156   0.000246   0.000195  -0.000200  -0.008050
      5      -0.001858   0.019821   0.000058   0.000086   0.000038  -0.001635
      6      -0.019555  -0.390569   0.000024   0.000184  -0.000020  -0.000035
      7      -0.124598  -0.020134  -0.000103   0.000010   0.000123  -0.000225
      8      -0.003912  -0.037497   0.000009   0.000016  -0.000013  -0.000013
      9       0.051111   0.202383  -0.000109  -0.000210   0.000037  -0.006508
     10       0.266171   0.079336   0.000199  -0.000223  -0.000174   0.001928
     11       0.009182   0.020947   0.000043  -0.000127   0.000037  -0.000617
     12       0.104012  -0.209498  -0.000370   0.001756  -0.001051   0.028680
     13      -0.289540   0.103911  -0.000978   0.001320  -0.000522   0.019812
     14       0.006215  -0.020146  -0.000053  -0.000098  -0.000058   0.003320
     15       0.002668   0.314166   0.000080  -0.001245   0.000215  -0.002847
     16       0.251215   0.001652  -0.000789  -0.000082  -0.001018  -0.001434
     17       0.005024   0.029933  -0.000054  -0.000155  -0.000602  -0.000255
     18      -0.301605   0.064654   0.008723  -0.016974   0.009760  -0.331440
     19       0.305345  -0.325006   0.007472  -0.014150   0.007068  -0.225910
     20      -0.025285   0.002022   0.000582  -0.001166   0.000211  -0.038374
     21       0.001041  -0.025090  -0.004665  -0.091070   0.014338   0.002660
     22      -0.044339   0.002438   0.049191  -0.007531   0.006164  -0.000066
     23       0.003515  -0.002709   0.002310  -0.014768  -0.091691   0.000756
     24       0.247435  -0.034713  -0.009939  -0.018893  -0.008215  -0.793763
     25       0.394561   0.261418   0.006005   0.011169   0.003988   0.368960
     26       0.028576   0.000681  -0.001213  -0.002410  -0.001624  -0.063762
     27       0.218940  -0.005626   0.000465   0.002686   0.000911   0.190359
     28      -0.160328   0.310286   0.000796   0.001755   0.000707   0.123361
     29       0.016478   0.004278  -0.000108   0.000323   0.000075   0.019085
     30       0.021269   0.246849   0.000011  -0.000004   0.000009  -0.000336
     31      -0.031414   0.023192  -0.000050   0.000004  -0.000081  -0.000021
     32       0.001717   0.023604  -0.000025  -0.000003  -0.000052  -0.000028
     33      -0.180254   0.079092  -0.000536   0.003005  -0.001446   0.077388
     34      -0.236317  -0.266047   0.000699  -0.001343   0.000756  -0.033941
     35      -0.022583   0.003306  -0.000200   0.000229  -0.000154   0.007213
     36      -0.038577   0.047685  -0.475370   0.569081  -0.365752  -0.013036
     37      -0.013154  -0.198045  -0.239855   0.302530  -0.189717  -0.006295
     38      -0.054794  -0.084023   0.202862  -0.252720   0.137713   0.005400
     39      -0.003633  -0.129854   0.084772  -0.024402  -0.117202   0.001024
     40      -0.046909   0.000496  -0.166570   0.006965   0.246095   0.000603
     41       0.009398  -0.018890  -0.553798   0.024218   0.759389  -0.000102
     42       0.051280  -0.022460   0.445135   0.545273   0.310104  -0.019350
     43       0.019577   0.190921  -0.166697  -0.219718  -0.117789   0.009276
     44      -0.033154   0.099857   0.324133   0.405399   0.203391  -0.014314
     45       0.009278  -0.085168  -0.000004   0.000005   0.000021   0.000196
     46       0.010392  -0.037891   0.000028   0.000010   0.000018  -0.000102
     47       0.001029  -0.008507   0.000002   0.000046  -0.000012   0.000020
     48      -0.024162  -0.086788  -0.000004   0.000016  -0.000020   0.000117
     49       0.012191   0.021664   0.000029  -0.000009   0.000015   0.000054
     50      -0.002112  -0.007925   0.000002  -0.000046  -0.000018   0.000006
                  48         49         50    
      0       0.031002   0.011537  -0.017507
      1      -0.013367  -0.007689   0.010224
      2       0.002508   0.000894  -0.001382
      3      -0.010221   0.045809  -0.053148
      4      -0.005048   0.030996  -0.034944
      5      -0.001001   0.004636  -0.005362
      6       0.000062  -0.004148   0.000546
      7      -0.000619  -0.000538  -0.002717
      8      -0.000013  -0.000402   0.000004
      9       0.020332   0.058247   0.049676
     10      -0.006217  -0.026888  -0.022144
     11       0.001936   0.005417   0.004638
     12      -0.062861   0.012697   0.014344
     13      -0.041448   0.011478   0.011602
     14      -0.007234   0.001513   0.001685
     15       0.001357  -0.001353  -0.000034
     16      -0.003067   0.000015   0.001477
     17       0.000186  -0.000131  -0.000007
     18       0.715684  -0.149815  -0.163294
     19       0.485362  -0.104470  -0.112993
     20       0.082389  -0.017349  -0.018820
     21      -0.001159   0.000416   0.000004
     22      -0.000868   0.000053   0.000186
     23       0.001203   0.000021  -0.000265
     24      -0.351549  -0.132863   0.196425
     25       0.162385   0.063900  -0.093511
     26      -0.028444  -0.010680   0.015813
     27       0.115375  -0.524010   0.599581
     28       0.075027  -0.349790   0.399793
     29       0.011607  -0.052891   0.060511
     30       0.000133   0.001669  -0.000070
     31       0.000018   0.000081  -0.000701
     32       0.000018   0.000158  -0.000017
     33      -0.236919  -0.664369  -0.560302
     34       0.104453   0.302956   0.255199
     35      -0.022136  -0.061961  -0.052233
     36       0.017586  -0.002001  -0.002431
     37       0.012517  -0.001175  -0.002488
     38      -0.008161   0.000928   0.001276
     39      -0.000031   0.000298   0.000048
     40       0.000586  -0.000028  -0.000881
     41      -0.002796   0.000073  -0.000145
     42      -0.004349  -0.001397   0.002440
     43       0.004343   0.000493  -0.002100
     44      -0.003628  -0.001070   0.001963
     45       0.000039  -0.000539   0.000460
     46      -0.000063   0.000294  -0.000006
     47       0.000000  -0.000042   0.000039
     48      -0.000139  -0.000539  -0.000372
     49      -0.000143  -0.000389  -0.000028
     50      -0.000019  -0.000060  -0.000034


-----------
IR SPECTRUM
-----------

 Mode    freq (cm**-1)   T**2         TX         TY         TZ
-------------------------------------------------------------------
   6:        88.84    0.255499  ( -0.501086  -0.039403  -0.053476)
   7:       105.26    0.478702  (  0.013361  -0.071149  -0.688085)
   8:       107.00    0.038091  (  0.025604  -0.016494  -0.192778)
   9:       223.58    1.132150  ( -1.054714  -0.071914  -0.120653)
  10:       290.17    4.495576  ( -0.204717  -0.142115   2.105581)
  11:       359.16    0.235764  ( -0.476204  -0.077276  -0.054977)
  12:       360.39    1.067192  (  0.120137  -1.024768  -0.051084)
  13:       429.14    0.006982  (  0.081523  -0.018328  -0.000009)
  14:       493.39    3.438108  (  0.212714  -0.191137  -1.832028)
  15:       532.74    1.275554  (  1.120310   0.079863   0.118670)
  16:       626.84    4.701249  ( -0.169949   2.159860  -0.085856)
  17:       646.67    0.416763  (  0.639200   0.067169   0.060617)
  18:       701.19    2.678124  (  0.163034  -0.089179  -1.625913)
  19:       759.45   29.687585  ( -0.546577  -0.007391   5.421142)
  20:       802.29   12.538827  ( -0.266133   3.529787  -0.092743)
  21:       862.07   20.859667  (  0.299147   1.910648  -4.137584)
  22:       863.90    0.144967  (  0.037560   0.277991  -0.257443)
  23:       866.43   21.773764  ( -0.509303   4.437033   1.351706)
  24:       996.07    0.004049  ( -0.005294   0.062759  -0.009075)
  25:      1001.96    2.308019  (  0.179330  -0.311435  -1.476099)
  26:      1017.26    0.113641  (  0.296075   0.155743   0.041528)
  27:      1027.80    2.784673  ( -0.065897   1.645260  -0.271017)
  28:      1070.96   17.338932  ( -0.506844   3.385588   2.370619)
  29:      1132.16   28.734128  ( -0.425910   5.343315  -0.041440)
  30:      1142.22    5.720441  ( -2.375400  -0.155004  -0.232144)
  31:      1208.00    9.497372  ( -0.247631   3.071692   0.027531)
  32:      1247.71    2.573726  ( -0.161067   1.573676   0.267075)
  33:      1329.64    0.260278  ( -0.506340   0.039004  -0.048750)
  34:      1354.49   10.742836  (  3.261385   0.082658   0.315235)
  35:      1367.72  357.712650  (  1.524032 -18.850943  -0.178632)
  36:      1421.83    1.612753  ( -0.163159   1.212597   0.340207)
  37:      1436.31    0.008371  ( -0.085042   0.026946   0.020305)
  38:      1493.33    1.984808  ( -1.383197  -0.107537  -0.244971)
  39:      1507.88    5.573968  ( -0.270597  -0.056274   2.344692)
  40:      1535.42    7.435885  (  0.256761  -2.711725  -0.128470)
  41:      1578.32  174.913347  ( 13.121800   1.083075   1.248464)
  42:      1643.09   40.066761  ( -0.059468   6.328937   0.088202)
  43:      1644.27   30.917650  (  5.535580  -0.092882   0.516120)
  44:      3043.82   17.884158  ( -0.295650   4.216346  -0.138482)
  45:      3116.58   13.206331  ( -3.575664  -0.328622  -0.559434)
  46:      3121.57   13.033003  (  0.464801   1.030535  -3.428551)
  47:      3171.35   10.936704  (  3.235002  -0.615876   0.303581)
  48:      3172.19    6.679778  ( -0.993304  -2.384837  -0.075348)
  49:      3197.44    0.098144  (  0.245261   0.194886   0.003193)
  50:      3197.95    2.010913  ( -0.129738   1.412038  -0.015164)

The first frequency considered to be a vibration is 6
The total number of vibrations considered is 45


--------------------------
THERMOCHEMISTRY AT 298.15K
--------------------------

Temperature         ... 298.15 K
Pressure            ... 1.00 atm
Total Mass          ... 137.14 AMU

Throughout the following assumptions are being made:
  (1) The electronic state is orbitally nondegenerate
  (2) There are no thermally accessible electronically excited states
  (3) Hindered rotations indicated by low frequency modes are not
      treated as such but are treated as vibrations and this may
      cause some error
  (4) All equations used are the standard statistical mechanics
      equations for an ideal gas
  (5) All vibrations are strictly harmonic

freq.      88.84  E(vib)   ...       0.47 
freq.     105.26  E(vib)   ...       0.45 
freq.     107.00  E(vib)   ...       0.45 
freq.     223.58  E(vib)   ...       0.33 
freq.     290.17  E(vib)   ...       0.27 
freq.     359.16  E(vib)   ...       0.22 
freq.     360.39  E(vib)   ...       0.22 
freq.     429.14  E(vib)   ...       0.18 
freq.     493.39  E(vib)   ...       0.14 
freq.     532.74  E(vib)   ...       0.13 
freq.     626.84  E(vib)   ...       0.09 
freq.     646.67  E(vib)   ...       0.09 
freq.     701.19  E(vib)   ...       0.07 
freq.     759.45  E(vib)   ...       0.06 
freq.     802.29  E(vib)   ...       0.05 
freq.     862.07  E(vib)   ...       0.04 
freq.     863.90  E(vib)   ...       0.04 
freq.     866.43  E(vib)   ...       0.04 
freq.     996.07  E(vib)   ...       0.02 
freq.    1001.96  E(vib)   ...       0.02 
freq.    1017.26  E(vib)   ...       0.02 
freq.    1027.80  E(vib)   ...       0.02 
freq.    1070.96  E(vib)   ...       0.02 
freq.    1132.16  E(vib)   ...       0.01 
freq.    1142.22  E(vib)   ...       0.01 
freq.    1208.00  E(vib)   ...       0.01 
freq.    1247.71  E(vib)   ...       0.01 
freq.    1329.64  E(vib)   ...       0.01 
freq.    1354.49  E(vib)   ...       0.01 
freq.    1367.72  E(vib)   ...       0.01 
freq.    1421.83  E(vib)   ...       0.00 
freq.    1436.31  E(vib)   ...       0.00 
freq.    1493.33  E(vib)   ...       0.00 
freq.    1507.88  E(vib)   ...       0.00 
freq.    1535.42  E(vib)   ...       0.00 
freq.    1578.32  E(vib)   ...       0.00 
freq.    1643.09  E(vib)   ...       0.00 
freq.    1644.27  E(vib)   ...       0.00 
freq.    3043.82  E(vib)   ...       0.00 
freq.    3116.58  E(vib)   ...       0.00 
freq.    3121.57  E(vib)   ...       0.00 
freq.    3171.35  E(vib)   ...       0.00 
freq.    3172.19  E(vib)   ...       0.00 
freq.    3197.44  E(vib)   ...       0.00 
freq.    3197.95  E(vib)   ...       0.00 

------------
INNER ENERGY
------------

The inner energy is: U= E(el) + E(ZPE) + E(vib) + E(rot) + E(trans)
    E(el)   - is the total energy from the electronic structure calculation
              = E(kin-el) + E(nuc-el) + E(el-el) + E(nuc-nuc)
    E(ZPE)  - the the zero temperature vibrational energy from the frequency calculation
    E(vib)  - the the finite temperature correction to E(ZPE) due to population
              of excited vibrational states
    E(rot)  - is the rotational thermal energy
    E(trans)- is the translational thermal energy

Summary of contributions to the inner energy U:
Electronic energy                ...   -475.80252275 Eh
Zero point energy                ...      0.13052953 Eh      81.91 kcal/mol
Thermal vibrational correction   ...      0.00562721 Eh       3.53 kcal/mol
Thermal rotational correction    ...      0.00141627 Eh       0.89 kcal/mol
Thermal translational correction ...      0.00141627 Eh       0.89 kcal/mol
-----------------------------------------------------------------------
Total thermal energy                   -475.66353345 Eh


Summary of corrections to the electronic energy:
(perhaps to be used in another calculation)
Total thermal correction                  0.00845976 Eh       5.31 kcal/mol
Non-thermal (ZPE) correction              0.13052953 Eh      81.91 kcal/mol
-----------------------------------------------------------------------
Total correction                          0.13898929 Eh      87.22 kcal/mol


--------
ENTHALPY
--------

The enthalpy is H = U + kB*T
                kB is Boltzmann's constant
Total free energy                 ...   -475.66353345 Eh 
Thermal Enthalpy correction       ...      0.00094421 Eh       0.59 kcal/mol
-----------------------------------------------------------------------
Total Enthalpy                    ...   -475.66258925 Eh


Vibrational entropy computed according to the QRRHO of S. Grimme
Chem.Eur.J. 2012 18 9955


-------
ENTROPY
-------

The entropy contributions are T*S = T*(S(el)+S(vib)+S(rot)+S(trans)
     S(el)   - electronic entropy
     S(vib)  - vibrational entropy
     S(rot)  - rotational entropy
     S(trans)- translational entropy
The entropies will be listed as mutliplied by the temperature to get
units of energy

Electronic entropy                ...      0.00000000 Eh      0.00 kcal/mol
Vibrational entropy               ...      0.00950883 Eh      5.97 kcal/mol
Rotational entropy                ...      0.01294138 Eh      8.12 kcal/mol
Translational entropy             ...      0.01931853 Eh     12.12 kcal/mol
-----------------------------------------------------------------------
Final entropy term                ...      0.04176873 Eh     26.21 kcal/mol


CAUTION: The rotational entropy is not quite correctly treated here
         because it includes a symmetry number that is not yet correctly
         implemented in ORCA!
For a nonlinear molecule the correct rotational entropy is:
    S(rot) = R*(ln(qrot/sn)+1.5)
    R    = 8.31441 J/mol/K = 1.987191683e-3 kcal/mol/K
    qrot = 600232.2980204
    sn is the rotational symmetry number. We have assumed 3 here
       if it is different for your molecule then you should correct
       the printed rotational entropy by manually evaluating the equation
       as given above

For convenience we print out the resulting values for sn=1 - 12:
 sn= 1  qrot/sn=  600232.2980 T*S(rot)=     8.77 kcal/mol T*S(tot)=    26.86 kcal/mol
 sn= 2  qrot/sn=  300116.1490 T*S(rot)=     8.36 kcal/mol T*S(tot)=    26.45 kcal/mol
 sn= 3  qrot/sn=  200077.4327 T*S(rot)=     8.12 kcal/mol T*S(tot)=    26.21 kcal/mol
 sn= 4  qrot/sn=  150058.0745 T*S(rot)=     7.95 kcal/mol T*S(tot)=    26.04 kcal/mol
 sn= 5  qrot/sn=  120046.4596 T*S(rot)=     7.82 kcal/mol T*S(tot)=    25.91 kcal/mol
 sn= 6  qrot/sn=  100038.7163 T*S(rot)=     7.71 kcal/mol T*S(tot)=    25.80 kcal/mol
 sn= 7  qrot/sn=   85747.4711 T*S(rot)=     7.62 kcal/mol T*S(tot)=    25.71 kcal/mol
 sn= 8  qrot/sn=   75029.0373 T*S(rot)=     7.54 kcal/mol T*S(tot)=    25.63 kcal/mol
 sn= 9  qrot/sn=   66692.4776 T*S(rot)=     7.47 kcal/mol T*S(tot)=    25.56 kcal/mol
 sn=10  qrot/sn=   60023.2298 T*S(rot)=     7.41 kcal/mol T*S(tot)=    25.50 kcal/mol
 sn=11  qrot/sn=   54566.5725 T*S(rot)=     7.35 kcal/mol T*S(tot)=    25.44 kcal/mol
 sn=12  qrot/sn=   50019.3582 T*S(rot)=     7.30 kcal/mol T*S(tot)=    25.39 kcal/mol


-------------------
GIBBS FREE ENTHALPY
-------------------

The Gibbs free enthalpy is G = H - T*S

Total enthalpy                    ...   -475.66258925 Eh 
Total entropy correction          ...     -0.04176873 Eh    -26.21 kcal/mol
-----------------------------------------------------------------------
Final Gibbs free enthalpy         ...   -475.70435798 Eh

For completeness - the Gibbs free enthalpy minus the electronic energy
G-E(el)                           ...      0.09816477 Eh     61.60 kcal/mol


Timings for individual modules:

Sum of individual times         ...     4866.123 sec (=  81.102 min)
GTO integral calculation        ...        0.619 sec (=   0.010 min)   0.0 %
SCF iterations                  ...      117.108 sec (=   1.952 min)   2.4 %
Analytical frequency calculation...     4748.396 sec (=  79.140 min)  97.6 %
                             ****ORCA TERMINATED NORMALLY****
TOTAL RUN TIME: 0 days 1 hours 21 minutes 6 seconds 844 msec
