
                                 *****************
                                 * O   R   C   A *
                                 *****************

           --- An Ab Initio, DFT and Semiempirical electronic structure package ---

                  #######################################################
                  #                        -***-                        #
                  #  Department of molecular theory and spectroscopy    #
                  #              Directorship: Frank Neese              #
                  # Max Planck Institute for Chemical Energy Conversion #
                  #                  D-45470 Muelheim/Ruhr              #
                  #                       Germany                       #
                  #                                                     #
                  #                  All rights reserved                #
                  #                        -***-                        #
                  #######################################################


                         Program Version 4.0.1 -  RELEASE  -


 With contributions from (in alphabetic order):
   Daniel Aravena         : Magnetic Properties
   Michael Atanasov       : Ab Initio Ligand Field Theory
   Ute Becker             : Parallelization
   Martin Brehm           : Molecular dynamics
   Dmytro Bykov           : SCF Hessian
   Vijay G. Chilkuri      : MRCI spin determinant printing
   Dipayan Datta          : RHF DLPNO-CCSD density
   Achintya Kumar Dutta   : EOM-CC, STEOM-CC
   Dmitry Ganyushin       : Spin-Orbit,Spin-Spin,Magnetic field MRCI
   Yang Guo               : DLPNO-NEVPT2, CIM, IAO-localization
   Andreas Hansen         : Spin unrestricted coupled pair/coupled cluster methods
   Lee Huntington         : MR-EOM, pCC
   Robert Izsak           : Overlap fitted RIJCOSX, COSX-SCS-MP3, EOM
   Christian Kollmar      : KDIIS, OOCD, Brueckner-CCSD(T), CCSD density
   Simone Kossmann        : Meta GGA functionals, TD-DFT gradient, OOMP2, MP2 Hessian
   Martin Krupicka        : AUTO-CI
   Dagmar Lenk            : GEPOL surface
   Dimitrios Liakos       : Extrapolation schemes; parallel MDCI
   Dimitrios Manganas     : ROCIS; embedding schemes
   Dimitrios Pantazis     : SARC Basis sets
   Taras Petrenko         : DFT Hessian,TD-DFT gradient, ASA, ECA, R-Raman, ABS, FL, XAS/XES, NRVS
   Peter Pinski           : DLPNO-MP2
   Christoph Reimann      : Effective Core Potentials
   Marius Retegan         : Local ZFS, SOC
   Christoph Riplinger    : Optimizer, TS searches, QM/MM, DLPNO-CCSD(T), (RO)-DLPNO pert. Triples
   Tobias Risthaus        : Range-separated hybrids, TD-DFT gradient, RPA, STAB
   Michael Roemelt        : Restricted open shell CIS
   Masaaki Saitow         : Open-shell DLPNO
   Barbara Sandhoefer     : DKH picture change effects
   Kantharuban Sivalingam : CASSCF convergence, NEVPT2, FIC-MRCI
   Georgi Stoychev        : AutoAux
   Boris Wezisla          : Elementary symmetry handling
   Frank Wennmohs         : Technical directorship


 We gratefully acknowledge several colleagues who have allowed us to
 interface, adapt or use parts of their codes:
   Stefan Grimme, W. Hujo, H. Kruse,             : VdW corrections, initial TS optimization,
                  C. Bannwarth                     DFT functionals, gCP, sTDA/sTD-DF
   Ed Valeev                                     : LibInt (2-el integral package), F12 methods
   Garnet Chan, S. Sharma, J. Yang, R. Olivares  : DMRG
   Ulf Ekstrom                                   : XCFun DFT Library
   Mihaly Kallay                                 : mrcc  (arbitrary order and MRCC methods)
   Andreas Klamt, Michael Diedenhofen            : otool_cosmo (COSMO solvation model)
   Jiri Pittner, Ondrej Demel                    : Mk-CCSD
   Frank Weinhold                                : gennbo (NPA and NBO analysis)
   Christopher J. Cramer and Donald G. Truhlar   : smd solvation model


 Your calculation uses the libint2 library for the computation of 2-el integrals
 For citations please refer to: http://libint.valeyev.net

 This ORCA versions uses:
   CBLAS   interface :  Fast vector & matrix operations
   LAPACKE interface :  Fast linear algebra routines
   SCALAPACK package :  Parallel linear algebra routines




*****************************************
The coordinations will be read from file: acetamida.xyz
*****************************************


Your calculation utilizes the basis: 6-31G(d,p)
   H-He, Li-Ne : W. J. Hehre, R. Ditchfield and J.A. Pople, J. Chem. Phys. 56, 2257 (1972).
                 Note: He and Ne are unpublished basis sets taken from the Gaussian program.
                 Note: Li and B from J. D. Dill and J. A. Pople, J. Chem. Phys. 62, 2921 (1975).
   Na - Ar     : M. M. Francl, W. J. Pietro, W. J. Hehre, J. S. Binkley, M. S. Gordon, 
                 D. J. DeFrees and J. A. Pople, J. Chem. Phys. 77, 3654 (1982).
   K - Zn      : V. A. Rassolov, J. A. Pople, M. A. Ratner, and T. L. Windus, J. Chem. Phys. 109, 1223 (1998).

================================================================================
                                        WARNINGS
                       Please study these warnings very carefully!
================================================================================

WARNING: Gradients needed for Numerical Frequencies
  ===> : Setting RunTyp to EnGrad
Warning: TCutStore was < 0. Adjusted to Thresh (uncritical)

WARNING: Evaluation of Numerical Hessian with CPCM may lead to unreliable numbers

INFO   : the flag for use of LIBINT has been found!

================================================================================
                                       INPUT FILE
================================================================================
NAME = acetamida.inp
|  1> ! B3LYP 6-31G(d,p) CPCM(water) NumFreq
|  2> 
|  3> * xyzfile 0 1 acetamida.xyz
|  4> 
|  5>                          ****END OF INPUT****
================================================================================

                     *******************************
                     * Energy+Gradient Calculation *
                     *******************************

---------------------------------
CARTESIAN COORDINATES (ANGSTROEM)
---------------------------------
  C     -4.699030   -0.460890   -0.036580
  C     -3.683770    0.639570   -0.142460
  H     -5.707140   -0.038520   -0.069540
  H     -4.561410   -1.001890    0.903710
  H     -4.576560   -1.157510   -0.870300
  O     -2.855180    0.718160   -1.040080
  N     -3.747650    1.568440    0.852170
  H     -3.084210    2.331760    0.826730
  H     -4.420210    1.528460    1.604330

----------------------------
CARTESIAN COORDINATES (A.U.)
----------------------------
  NO LB      ZA    FRAG     MASS         X           Y           Z
   0 C     6.0000    0    12.011   -8.879880   -0.870956   -0.069126
   1 C     6.0000    0    12.011   -6.961316    1.208612   -0.269210
   2 H     1.0000    0     1.008  -10.784932   -0.072792   -0.131412
   3 H     1.0000    0     1.008   -8.619816   -1.893298    1.707764
   4 H     1.0000    0     1.008   -8.648445   -2.187377   -1.644629
   5 O     8.0000    0    15.999   -5.395508    1.357126   -1.965466
   6 N     7.0000    0    14.007   -7.082032    2.963922    1.610368
   7 H     1.0000    0     1.008   -5.828312    4.406388    1.562293
   8 H     1.0000    0     1.008   -8.352986    2.888371    3.031744

--------------------------------
INTERNAL COORDINATES (ANGSTROEM)
--------------------------------
 C      0   0   0     0.000000000000     0.00000000     0.00000000
 C      1   0   0     1.500991556805     0.00000000     0.00000000
 H      1   2   0     1.093512025814   109.77085582     0.00000000
 H      1   2   3     1.093510653126   109.77028892   239.65143132
 H      1   2   3     1.093328570787   109.72929980   119.82594995
 O      2   1   3     1.224115779083   123.82360162   240.17382834
 N      2   1   3     1.362412921327   114.62268770    60.17380298
 H      7   2   1     1.011660639543   117.73050076   180.00021334
 H      7   2   1     1.009792067507   123.23164269     0.00000000

---------------------------
INTERNAL COORDINATES (A.U.)
---------------------------
 C      0   0   0     0.000000000000     0.00000000     0.00000000
 C      1   0   0     2.836462971690     0.00000000     0.00000000
 H      1   2   0     2.066438252938   109.77085582     0.00000000
 H      1   2   3     2.066435658933   109.77028892   239.65143132
 H      1   2   3     2.066091573180   109.72929980   119.82594995
 O      2   1   3     2.313243578679   123.82360162   240.17382834
 N      2   1   3     2.574587302624   114.62268770    60.17380298
 H      7   2   1     1.911761549203   117.73050076   180.00021334
 H      7   2   1     1.908230459794   123.23164269     0.00000000

---------------------
BASIS SET INFORMATION
---------------------
There are 4 groups of distinct atoms

 Group   1 Type C   : 10s4p1d contracted to 3s2p1d pattern {631/31/1}
 Group   2 Type H   : 4s1p contracted to 2s1p pattern {31/1}
 Group   3 Type O   : 10s4p1d contracted to 3s2p1d pattern {631/31/1}
 Group   4 Type N   : 10s4p1d contracted to 3s2p1d pattern {631/31/1}

Atom   0C    basis set group =>   1
Atom   1C    basis set group =>   1
Atom   2H    basis set group =>   2
Atom   3H    basis set group =>   2
Atom   4H    basis set group =>   2
Atom   5O    basis set group =>   3
Atom   6N    basis set group =>   4
Atom   7H    basis set group =>   2
Atom   8H    basis set group =>   2
------------------------------------------------------------------------------
                           ORCA GTO INTEGRAL CALCULATION
------------------------------------------------------------------------------

                         BASIS SET STATISTICS AND STARTUP INFO

 # of primitive gaussian shells          ...   85
 # of primitive gaussian functions       ...  143
 # of contracted shells                  ...   39
 # of contracted basis functions         ...   81
 Highest angular momentum                ...    2
 Maximum contraction depth               ...    6
 Integral package used                   ... LIBINT
 Integral threshhold            Thresh   ...  2.500e-11
 Primitive cut-off              TCut     ...  2.500e-12


------------------------------ INTEGRAL EVALUATION ----------------------------


 * One electron integrals 
 Pre-screening matrix                    ... done
 Shell pair data                         ... done (   0.002 sec)

-------------------------------------------------------------------------------
                                 ORCA SCF
-------------------------------------------------------------------------------

------------
SCF SETTINGS
------------
Hamiltonian:
 Density Functional     Method          .... DFT(GTOs)
 Exchange Functional    Exchange        .... B88
   X-Alpha parameter    XAlpha          ....  0.666667
   Becke's b parameter  XBeta           ....  0.004200
 Correlation Functional Correlation     .... LYP
 LDA part of GGA corr.  LDAOpt          .... VWN-5
 Gradients option       PostSCFGGA      .... off
 Hybrid DFT is turned on
   Fraction HF Exchange ScalHFX         ....  0.200000
   Scaling of DF-GGA-X  ScalDFX         ....  0.720000
   Scaling of DF-GGA-C  ScalDFC         ....  0.810000
   Scaling of DF-LDA-C  ScalLDAC        ....  1.000000
   Perturbative correction              ....  0.000000
   NL short-range parameter             ....  4.800000


General Settings:
 Integral files         IntName         .... acetamida
 Hartree-Fock type      HFTyp           .... RHF
 Total Charge           Charge          ....    0
 Multiplicity           Mult            ....    1
 Number of Electrons    NEL             ....   32
 Basis Dimension        Dim             ....   81
 Nuclear Repulsion      ENuc            ....    121.8398508178 Eh

Convergence Acceleration:
 DIIS                   CNVDIIS         .... on
   Start iteration      DIISMaxIt       ....    12
   Startup error        DIISStart       ....  0.200000
   # of expansion vecs  DIISMaxEq       ....     5
   Bias factor          DIISBfac        ....   1.050
   Max. coefficient     DIISMaxC        ....  10.000
 Newton-Raphson         CNVNR           .... off
 SOSCF                  CNVSOSCF        .... on
   Start iteration      SOSCFMaxIt      ....   150
   Startup grad/error   SOSCFStart      ....  0.003300
 Level Shifting         CNVShift        .... on
   Level shift para.    LevelShift      ....    0.2500
   Turn off err/grad.   ShiftErr        ....    0.0010
 Zerner damping         CNVZerner       .... off
 Static damping         CNVDamp         .... on
   Fraction old density DampFac         ....    0.7000
   Max. Damping (<1)    DampMax         ....    0.9800
   Min. Damping (>=0)   DampMin         ....    0.0000
   Turn off err/grad.   DampErr         ....    0.1000
 Fernandez-Rico         CNVRico         .... off

SCF Procedure:
 Maximum # iterations   MaxIter         ....   125
 SCF integral mode      SCFMode         .... Direct
   Integral package                     .... LIBINT
 Reset frequeny         DirectResetFreq ....    20
 Integral Threshold     Thresh          ....  2.500e-11 Eh
 Primitive CutOff       TCut            ....  2.500e-12 Eh

Convergence Tolerance:
 Convergence Check Mode ConvCheckMode   .... Total+1el-Energy
 Convergence forced     ConvForced      .... 0
 Energy Change          TolE            ....  1.000e-08 Eh
 1-El. energy change                    ....  1.000e-05 Eh
 Orbital Gradient       TolG            ....  1.000e-05
 Orbital Rotation angle TolX            ....  1.000e-05
 DIIS Error             TolErr          ....  5.000e-07


Diagonalization of the overlap matrix:
Smallest eigenvalue                        ... 5.560e-03
Time for diagonalization                   ...    0.003 sec
Threshold for overlap eigenvalues          ... 1.000e-08
Number of eigenvalues below threshold      ... 0
Time for construction of square roots      ...    0.001 sec
Total time needed                          ...    0.004 sec

-------------------
DFT GRID GENERATION
-------------------

General Integration Accuracy     IntAcc      ...  4.340
Radial Grid Type                 RadialGrid  ... Gauss-Chebyshev
Angular Grid (max. acc.)         AngularGrid ... Lebedev-110
Angular grid pruning method      GridPruning ... 3 (G Style)
Weight generation scheme         WeightScheme... Becke
Basis function cutoff            BFCut       ...    1.0000e-11
Integration weight cutoff        WCut        ...    1.0000e-14
Grids for H and He will be reduced by one unit

# of grid points (after initial pruning)     ...  10700 (   0.0 sec)
# of grid points (after weights+screening)   ...  10230 (   0.0 sec)
nearest neighbour list constructed           ...    0.0 sec
Grid point re-assignment to atoms done       ...    0.0 sec
Grid point division into batches done        ...    0.0 sec
Reduced shell lists constructed in    0.2 sec

Total number of grid points                  ...    10230
Total number of batches                      ...      163
Average number of points per batch           ...       62
Average number of grid points per atom       ...     1137
Average number of shells per batch           ...    31.56 (80.93%)
Average number of basis functions per batch  ...    66.49 (82.08%)
Average number of large shells per batch     ...    26.27 (83.25%)
Average number of large basis fcns per batch ...    54.97 (82.68%)
Maximum spatial batch extension              ...  25.60, 23.42, 19.97 au
Average spatial batch extension              ...   4.51,  4.56,  4.24 au

Time for grid setup =    0.191 sec

------------------------------
INITIAL GUESS: MODEL POTENTIAL
------------------------------
Loading Hartree-Fock densities                     ... done
Calculating cut-offs                               ... done
Setting up the integral package                    ... done
Initializing the effective Hamiltonian             ... done
Starting the Coulomb interaction                   ... done (   0.1 sec)
Reading the grid                                   ... done
Mapping shells                                     ... done
Starting the XC term evaluation                    ... done (   0.2 sec)
  promolecular density results
     # of electrons  =     32.001935556
     EX              =    -26.533835904
     EC              =     -1.074572178
     EX+EC           =    -27.608408082
Transforming the Hamiltonian                       ... done (   0.0 sec)
Diagonalizing the Hamiltonian                      ... done (   0.0 sec)
Back transforming the eigenvectors                 ... done (   0.0 sec)
Now organizing SCF variables                       ... done
                      ------------------
                      INITIAL GUESS DONE (   0.6 sec)
                      ------------------

------------------------------------------------------------------------------
                           CPCM SOLVATION MODEL                               
------------------------------------------------------------------------------
CPCM parameters:
  Epsilon                                         ...      80.4000
  Refrac                                          ...       1.3300
  Rsolv                                           ...       1.3000
  Surface type                                    ...    GEPOL SES
  Epsilon function type                           ...         CPCM
Radii:
 Radius for C  used is    3.7795 Bohr (=   2.0000 Ang.)
 Radius for H  used is    2.4566 Bohr (=   1.3000 Ang.)
 Radius for O  used is    3.2503 Bohr (=   1.7200 Ang.)
 Radius for N  used is    3.4582 Bohr (=   1.8300 Ang.)
Calculating surface                               ...        done! (  0.0s)
GEPOL surface points                              ...          313
GEPOL Volume                                      ...     522.9444
GEPOL Surface-area                                ...     349.5289
Calculating surface distance matrix               ...        done! (  0.0s)
Performing Cholesky decomposition & store         ...        done! (  0.0s)
Overall time for CPCM initialization              ...                 0.0s
--------------
SCF ITERATIONS
--------------
ITER       Energy         Delta-E        Max-DP      RMS-DP      [F,P]     Damp
               ***  Starting incremental Fock matrix formation  ***
  0   -208.9293257951   0.000000000000 0.08929276  0.00400783  0.2766554 0.7000
  1   -209.0182065707  -0.088880775596 0.04993233  0.00259702  0.1155154 0.7000
                               ***Turning on DIIS***
  2   -209.0514541825  -0.033247611827 0.06566194  0.00374852  0.0406076 0.0000
  3   -209.1033475993  -0.051893416796 0.03360818  0.00174953  0.0616061 0.0000
  4   -209.1150373366  -0.011689737240 0.00913128  0.00047828  0.0148059 0.0000
  5   -209.1157264556  -0.000689119036 0.00309162  0.00017923  0.0045759 0.0000
                      *** Initiating the SOSCF procedure ***
                           *** Shutting down DIIS ***
                      *** Re-Reading the Fockian *** 
                      *** Removing any level shift *** 
ITER      Energy       Delta-E        Grad      Rot      Max-DP    RMS-DP
  6   -209.11577037  -0.0000439159  0.000310  0.000310  0.000844  0.000055
               *** Restarting incremental Fock matrix formation ***
  7   -209.11577568  -0.0000053068  0.000151  0.000340  0.000597  0.000037
  8   -209.11577598  -0.0000002999  0.000092  0.000156  0.000223  0.000010
  9   -209.11577619  -0.0000002072  0.000027  0.000070  0.000083  0.000005
 10   -209.11577619  -0.0000000027  0.000031  0.000033  0.000045  0.000002
 11   -209.11577620  -0.0000000093  0.000008  0.000022  0.000027  0.000002
 12   -209.11577620   0.0000000001  0.000009  0.000008  0.000013  0.000001
                 **** Energy Check signals convergence ****
              ***Rediagonalizing the Fockian in SOSCF/NRSCF***

               *****************************************************
               *                     SUCCESS                       *
               *           SCF CONVERGED AFTER  13 CYCLES          *
               *****************************************************

Setting up the final grid:

General Integration Accuracy     IntAcc      ...  4.670
Radial Grid Type                 RadialGrid  ... Gauss-Chebyshev
Angular Grid (max. acc.)         AngularGrid ... Lebedev-302
Angular grid pruning method      GridPruning ... 3 (G Style)
Weight generation scheme         WeightScheme... Becke
Basis function cutoff            BFCut       ...    1.0000e-11
Integration weight cutoff        WCut        ...    1.0000e-14
Grids for H and He will be reduced by one unit

# of grid points (after initial pruning)     ...  41818 (   0.0 sec)
# of grid points (after weights+screening)   ...  39770 (   0.1 sec)
nearest neighbour list constructed           ...    0.0 sec
Grid point re-assignment to atoms done       ...    0.0 sec
Grid point division into batches done        ...    0.2 sec
Reduced shell lists constructed in    0.8 sec

Total number of grid points                  ...    39770
Total number of batches                      ...      626
Average number of points per batch           ...       63
Average number of grid points per atom       ...     4419
Average number of shells per batch           ...    28.80 (73.84%)
Average number of basis functions per batch  ...    60.59 (74.81%)
Average number of large shells per batch     ...    23.59 (81.91%)
Average number of large basis fcns per batch ...    49.09 (81.01%)
Maximum spatial batch extension              ...  17.96, 17.27, 20.64 au
Average spatial batch extension              ...   2.83,  2.77,  2.79 au

Final grid set up in    0.9 sec
Final integration                            ... done (   0.8 sec)
Change in XC energy                          ...     0.000218329
Integrated number of electrons               ...    31.999942617
Previous integrated no of electrons          ...    32.003815726

----------------
TOTAL SCF ENERGY
----------------

Total Energy       :         -209.11555787 Eh           -5690.32362 eV

Components:
Nuclear Repulsion  :          121.83985082 Eh            3315.43089 eV
Electronic Energy  :         -330.95540869 Eh           -9005.75451 eV
One Electron Energy:         -525.33839504 Eh          -14295.18448 eV
Two Electron Energy:          194.38298635 Eh            5289.42997 eV
CPCM Dielectric    :           -0.01885367 Eh              -0.51303 eV

Virial components:
Potential Energy   :         -416.91112104 Eh          -11344.72836 eV
Kinetic Energy     :          207.79556317 Eh            5654.40474 eV
Virial Ratio       :            2.00635237


DFT components:
N(Alpha)           :       15.999971308633 electrons
N(Beta)            :       15.999971308633 electrons
N(Total)           :       31.999942617265 electrons
E(X)               :      -21.480953296488 Eh       
E(C)               :       -1.276101413742 Eh       
E(XC)              :      -22.757054710230 Eh       
CPCM Solvation Model Properties:
Surface-charge          :           -0.01345974
Charge-correction       :           -0.00011540 Eh              -0.00314 eV
Free-energy (cav+disp)  :            0.00316018 Eh               0.08599 eV
Corrected G(solv)       :         -209.11251309 Eh           -5690.24077 eV

---------------
SCF CONVERGENCE
---------------

  Last Energy change         ...   -7.8629e-10  Tolerance :   1.0000e-08
  Last MAX-Density change    ...    3.9149e-06  Tolerance :   1.0000e-07
  Last RMS-Density change    ...    2.5824e-07  Tolerance :   5.0000e-09
  Last Orbital Gradient      ...    9.3220e-07  Tolerance :   1.0000e-05
  Last Orbital Rotation      ...    1.9314e-06  Tolerance :   1.0000e-05

             **** THE GBW FILE WAS UPDATED (acetamida.gbw) ****
             **** DENSITY FILE WAS UPDATED (acetamida.scfp.tmp) ****
             **** ENERGY FILE WAS UPDATED (acetamida.en.tmp) ****
----------------
ORBITAL ENERGIES
----------------

  NO   OCC          E(Eh)            E(eV) 
   0   2.0000     -19.105586      -519.8894 
   1   2.0000     -14.337299      -390.1377 
   2   2.0000     -10.280991      -279.7600 
   3   2.0000     -10.172457      -276.8066 
   4   2.0000      -1.027934       -27.9715 
   5   2.0000      -0.889201       -24.1964 
   6   2.0000      -0.729342       -19.8464 
   7   2.0000      -0.574359       -15.6291 
   8   2.0000      -0.520072       -14.1519 
   9   2.0000      -0.461674       -12.5628 
  10   2.0000      -0.439268       -11.9531 
  11   2.0000      -0.399218       -10.8633 
  12   2.0000      -0.385851       -10.4996 
  13   2.0000      -0.358915        -9.7666 
  14   2.0000      -0.260366        -7.0849 
  15   2.0000      -0.250397        -6.8136 
  16   0.0000       0.035614         0.9691 
  17   0.0000       0.099129         2.6975 
  18   0.0000       0.140240         3.8161 
  19   0.0000       0.165009         4.4901 
  20   0.0000       0.175711         4.7813 
  21   0.0000       0.193897         5.2762 
  22   0.0000       0.246011         6.6943 
  23   0.0000       0.314779         8.5656 
  24   0.0000       0.365781         9.9534 
  25   0.0000       0.544022        14.8036 
  26   0.0000       0.544641        14.8204 
  27   0.0000       0.592486        16.1224 
  28   0.0000       0.609096        16.5744 
  29   0.0000       0.633410        17.2360 
  30   0.0000       0.678941        18.4749 
  31   0.0000       0.706242        19.2178 
  32   0.0000       0.752641        20.4804 
  33   0.0000       0.778446        21.1826 
  34   0.0000       0.857394        23.3309 
  35   0.0000       0.857615        23.3369 
  36   0.0000       0.866281        23.5727 
  37   0.0000       0.885239        24.0886 
  38   0.0000       0.913307        24.8523 
  39   0.0000       0.950507        25.8646 
  40   0.0000       1.016692        27.6656 
  41   0.0000       1.073505        29.2116 
  42   0.0000       1.246211        33.9111 
  43   0.0000       1.301201        35.4075 
  44   0.0000       1.320525        35.9333 
  45   0.0000       1.383253        37.6402 
  46   0.0000       1.393983        37.9322 
  47   0.0000       1.461360        39.7656 
  48   0.0000       1.607493        43.7421 
  49   0.0000       1.735903        47.2363 
  50   0.0000       1.752279        47.6819 
  51   0.0000       1.801413        49.0189 
  52   0.0000       1.867863        50.8271 
  53   0.0000       1.890849        51.4526 
  54   0.0000       2.004650        54.5493 
  55   0.0000       2.040984        55.5380 
  56   0.0000       2.049710        55.7755 
  57   0.0000       2.055077        55.9215 
  58   0.0000       2.073747        56.4295 
  59   0.0000       2.138054        58.1794 
  60   0.0000       2.171659        59.0938 
  61   0.0000       2.180871        59.3445 
  62   0.0000       2.336070        63.5677 
  63   0.0000       2.357289        64.1451 
  64   0.0000       2.399511        65.2940 
  65   0.0000       2.513894        68.4065 
  66   0.0000       2.540515        69.1309 
  67   0.0000       2.628587        71.5275 
  68   0.0000       2.694579        73.3232 
  69   0.0000       2.695545        73.3495 
  70   0.0000       2.736287        74.4581 
  71   0.0000       2.866277        77.9954 
  72   0.0000       2.897437        78.8433 
  73   0.0000       2.911956        79.2384 
  74   0.0000       3.035477        82.5995 
  75   0.0000       3.087801        84.0233 
  76   0.0000       3.211967        87.4021 
  77   0.0000       3.409519        92.7777 
  78   0.0000       3.425712        93.2184 
  79   0.0000       3.469098        94.3990 
  80   0.0000       3.626629        98.6856 

                    ********************************
                    * MULLIKEN POPULATION ANALYSIS *
                    ********************************

-----------------------
MULLIKEN ATOMIC CHARGES
-----------------------
   0 C :   -0.400482
   1 C :    0.479381
   2 H :    0.149379
   3 H :    0.151150
   4 H :    0.133648
   5 O :   -0.539733
   6 N :   -0.573859
   7 H :    0.296325
   8 H :    0.304192
Sum of atomic charges:   -0.0000000

--------------------------------
MULLIKEN REDUCED ORBITAL CHARGES
--------------------------------
  0 C s       :     3.258760  s :     3.258760
      pz      :     1.081067  p :     3.113075
      px      :     1.025077
      py      :     1.006931
      dz2     :     0.006753  d :     0.028646
      dxz     :     0.001237
      dyz     :     0.008194
      dx2y2   :     0.004421
      dxy     :     0.008041
  1 C s       :     2.995586  s :     2.995586
      pz      :     0.766245  p :     2.413219
      px      :     0.817439
      py      :     0.829535
      dz2     :     0.030291  d :     0.111815
      dxz     :     0.019222
      dyz     :     0.026341
      dx2y2   :     0.014964
      dxy     :     0.020997
  2 H s       :     0.838842  s :     0.838842
      pz      :     0.002397  p :     0.011780
      px      :     0.006483
      py      :     0.002899
  3 H s       :     0.837103  s :     0.837103
      pz      :     0.005773  p :     0.011748
      px      :     0.002425
      py      :     0.003550
  4 H s       :     0.855075  s :     0.855075
      pz      :     0.005054  p :     0.011277
      px      :     0.002163
      py      :     0.004061
  5 O s       :     3.832331  s :     3.832331
      pz      :     1.484308  p :     4.682447
      px      :     1.477845
      py      :     1.720293
      dz2     :     0.006997  d :     0.024955
      dxz     :     0.007215
      dyz     :     0.003855
      dx2y2   :     0.003765
      dxy     :     0.003123
  6 N s       :     3.520504  s :     3.520504
      pz      :     1.308241  p :     4.033543
      px      :     1.413676
      py      :     1.311627
      dz2     :     0.004564  d :     0.019811
      dxz     :     0.004644
      dyz     :     0.003531
      dx2y2   :     0.002381
      dxy     :     0.004691
  7 H s       :     0.679313  s :     0.679313
      pz      :     0.004499  p :     0.024363
      px      :     0.009486
      py      :     0.010378
  8 H s       :     0.671124  s :     0.671124
      pz      :     0.010470  p :     0.024684
      px      :     0.009653
      py      :     0.004561


                     *******************************
                     * LOEWDIN POPULATION ANALYSIS *
                     *******************************

----------------------
LOEWDIN ATOMIC CHARGES
----------------------
   0 C :   -0.225388
   1 C :    0.110417
   2 H :    0.098183
   3 H :    0.098760
   4 H :    0.088822
   5 O :   -0.343572
   6 N :   -0.151739
   7 H :    0.160432
   8 H :    0.164086

-------------------------------
LOEWDIN REDUCED ORBITAL CHARGES
-------------------------------
  0 C s       :     2.921161  s :     2.921161
      pz      :     1.106014  p :     3.245044
      px      :     1.074687
      py      :     1.064343
      dz2     :     0.013278  d :     0.059183
      dxz     :     0.002184
      dyz     :     0.016205
      dx2y2   :     0.009265
      dxy     :     0.018250
  1 C s       :     2.846150  s :     2.846150
      pz      :     0.919633  p :     2.777965
      px      :     0.925905
      py      :     0.932427
      dz2     :     0.071048  d :     0.265468
      dxz     :     0.046350
      dyz     :     0.065504
      dx2y2   :     0.032731
      dxy     :     0.049835
  2 H s       :     0.861448  s :     0.861448
      pz      :     0.007082  p :     0.040369
      px      :     0.023782
      py      :     0.009505
  3 H s       :     0.860888  s :     0.860888
      pz      :     0.021135  p :     0.040352
      px      :     0.007328
      py      :     0.011889
  4 H s       :     0.871807  s :     0.871807
      pz      :     0.018110  p :     0.039371
      px      :     0.006592
      py      :     0.014669
  5 O s       :     3.553607  s :     3.553607
      pz      :     1.519274  p :     4.738036
      px      :     1.512608
      py      :     1.706153
      dz2     :     0.012147  d :     0.051930
      dxz     :     0.019281
      dyz     :     0.007113
      dx2y2   :     0.007313
      dxy     :     0.006075
  6 N s       :     3.105300  s :     3.105300
      pz      :     1.309270  p :     3.994699
      px      :     1.374584
      py      :     1.310845
      dz2     :     0.011420  d :     0.051739
      dxz     :     0.010625
      dyz     :     0.012311
      dx2y2   :     0.006849
      dxy     :     0.010535
  7 H s       :     0.757982  s :     0.757982
      pz      :     0.013329  p :     0.081585
      px      :     0.032096
      py      :     0.036160
  8 H s       :     0.753311  s :     0.753311
      pz      :     0.036132  p :     0.082604
      px      :     0.032698
      py      :     0.013773


                      *****************************
                      * MAYER POPULATION ANALYSIS *
                      *****************************

  NA   - Mulliken gross atomic population
  ZA   - Total nuclear charge
  QA   - Mulliken gross atomic charge
  VA   - Mayer's total valence
  BVA  - Mayer's bonded valence
  FA   - Mayer's free valence

  ATOM       NA         ZA         QA         VA         BVA        FA
  0 C      6.4005     6.0000    -0.4005     3.8193     3.8193     0.0000
  1 C      5.5206     6.0000     0.4794     4.0415     4.0415     0.0000
  2 H      0.8506     1.0000     0.1494     0.9504     0.9504     0.0000
  3 H      0.8489     1.0000     0.1511     0.9502     0.9502    -0.0000
  4 H      0.8664     1.0000     0.1336     0.9625     0.9625     0.0000
  5 O      8.5397     8.0000    -0.5397     2.0103     2.0103    -0.0000
  6 N      7.5739     7.0000    -0.5739     3.0206     3.0206     0.0000
  7 H      0.7037     1.0000     0.2963     0.9116     0.9116     0.0000
  8 H      0.6958     1.0000     0.3042     0.8984     0.8984    -0.0000

  Mayer bond orders larger than 0.1
B(  0-C ,  1-C ) :   0.9831 B(  0-C ,  2-H ) :   0.9442 B(  0-C ,  3-H ) :   0.9438 
B(  0-C ,  4-H ) :   0.9597 B(  1-C ,  5-O ) :   1.8518 B(  1-C ,  6-N ) :   1.1940 
B(  6-N ,  7-H ) :   0.8772 B(  6-N ,  8-H ) :   0.8756 

-------
TIMINGS
-------

Total SCF time: 0 days 0 hours 0 min 35 sec 

Total time                  ....      35.848 sec
Sum of individual times     ....      35.772 sec  ( 99.8%)

Fock matrix formation       ....      34.156 sec  ( 95.3%)
  XC integration            ....       4.028 sec  ( 11.8% of F)
    Basis function eval.    ....       1.761 sec  ( 43.7% of XC)
    Density eval.           ....       0.841 sec  ( 20.9% of XC)
    XC-Functional eval.     ....       0.465 sec  ( 11.5% of XC)
    XC-Potential eval.      ....       0.852 sec  ( 21.1% of XC)
Diagonalization             ....       0.032 sec  (  0.1%)
Density matrix formation    ....       0.002 sec  (  0.0%)
Population analysis         ....       0.005 sec  (  0.0%)
Initial guess               ....       0.451 sec  (  1.3%)
Orbital Transformation      ....       0.000 sec  (  0.0%)
Orbital Orthonormalization  ....       0.000 sec  (  0.0%)
DIIS solution               ....       0.009 sec  (  0.0%)
SOSCF solution              ....       0.029 sec  (  0.1%)
Grid generation             ....       1.088 sec  (  3.0%)

-------------------------   --------------------
FINAL SINGLE POINT ENERGY      -209.115557868548
-------------------------   --------------------

------------------------------------------------------------------------------
                         ORCA SCF GRADIENT CALCULATION
------------------------------------------------------------------------------

Gradient of the Kohn-Sham DFT energy:
Kohn-Sham wavefunction type      ... RKS
Hartree-Fock exchange scaling    ...    0.200
Number of operators              ...    1
Number of atoms                  ...    9
Basis set dimensions             ...   81
Integral neglect threshold       ... 2.5e-11
Integral primitive cutoff        ... 2.5e-12

Nuclear repulsion gradient       ... done
One Electron Gradient            ... done
Pre-screening matrix             ... done
Starting the two electron gradient:
Two electron gradient done
Exchange-correlation gradient    ... done

------------------
CARTESIAN GRADIENT
------------------

   1   C   :    0.002853223    0.007375014    0.004239557
   2   C   :    0.005486556   -0.009089977   -0.015408987
   3   H   :    0.001526060    0.001317571   -0.002087130
   4   H   :    0.002646229    0.000529119   -0.001233861
   5   H   :   -0.000010343   -0.000917727   -0.000939475
   6   O   :   -0.010729829    0.000540699    0.013115717
   7   N   :   -0.002757481   -0.000138117    0.003117304
   8   H   :    0.001634567   -0.000011650   -0.001821579
   9   H   :   -0.000648982    0.000395067    0.001018455

Difference to translation invariance:
           :    0.0000000000   -0.0000000000    0.0000000000

Norm of the cartesian gradient     ...    0.0276045614
RMS gradient                       ...    0.0053125003
MAX gradient                       ...    0.0154089874

-------
TIMINGS
-------

Total SCF gradient time            ...        9.606 sec

One electron gradient       ....       0.060 sec  (  0.6%)
Prescreening matrices       ....       0.102 sec  (  1.1%)
Two electron gradient       ....       4.704 sec  ( 49.0%)
XC gradient                 ....       4.104 sec  ( 42.7%)
CPCM gradient               ....       0.409 sec  (  4.3%)
   A-Matrix (El+Nuc)        ....       0.008 sec  (  0.1%)
   Potential                ....       0.402 sec  (  4.2%)

                            ***************************************
                            *     ORCA property calculations      *
                            ***************************************

                                    ---------------------
                                    Active property flags
                                    ---------------------
   (+) Dipole Moment


------------------------------------------------------------------------------
                       ORCA ELECTRIC PROPERTIES CALCULATION
------------------------------------------------------------------------------

Dipole Moment Calculation                       ... on
Quadrupole Moment Calculation                   ... off
Polarizability Calculation                      ... off
GBWName                                         ... acetamida.gbw
Electron density file                           ... acetamida.scfp.tmp
The origin for moment calculation is the CENTER OF MASS  = (-7.082714,  1.192699 -0.142054)

-------------
DIPOLE MOMENT
-------------
                                X             Y             Z
Electronic contribution:      2.24731       1.65887      -1.00123
Nuclear contribution   :     -3.37312      -1.39467       2.59033
                        -----------------------------------------
Total Dipole Moment    :     -1.12581       0.26420       1.58910
                        -----------------------------------------
Magnitude (a.u.)       :      1.96532
Magnitude (Debye)      :      4.99545


----------------------------------------------------------------------------
                           ORCA NUMERICAL FREQUENCIES
----------------------------------------------------------------------------

Number of atoms                ... 9
Central differences            ... used
Number of displacements        ... 54
Numerical increment            ...  0.005 bohr
IR-spectrum generation         ... on
Raman-spectrum generation      ... off
Surface Crossing Hessian       ... off

The output will be reduced. Please look at the following files:
SCF program output             ... >acetamida.lastscf
Integral program output        ... >acetamida.lastint
Gradient program output        ... >acetamida.lastgrad
Dipole moment program output   ... >acetamida.lastmom


         <<<Energy and Gradient at the input geometry>>>
The origin for moment calculation is the CENTER OF MASS  = (-7.082714,  1.192699 -0.142054)
             <<<Displacing   1/coordinate 1 (+)>>>
The origin for moment calculation is the CENTER OF MASS  = (-7.081697,  1.192699 -0.142054)
             <<<Displacing   1/coordinate 1 (-)>>>
The origin for moment calculation is the CENTER OF MASS  = (-7.083730,  1.192699 -0.142054)
             <<<Displacing   1/coordinate 2 (+)>>>
The origin for moment calculation is the CENTER OF MASS  = (-7.082714,  1.193715 -0.142054)
             <<<Displacing   1/coordinate 2 (-)>>>
The origin for moment calculation is the CENTER OF MASS  = (-7.082714,  1.191682 -0.142054)
             <<<Displacing   1/coordinate 3 (+)>>>
The origin for moment calculation is the CENTER OF MASS  = (-7.082714,  1.192699 -0.141038)
             <<<Displacing   1/coordinate 3 (-)>>>
The origin for moment calculation is the CENTER OF MASS  = (-7.082714,  1.192699 -0.143071)
             <<<Displacing   2/coordinate 1 (+)>>>
The origin for moment calculation is the CENTER OF MASS  = (-7.081697,  1.192699 -0.142054)
             <<<Displacing   2/coordinate 1 (-)>>>
The origin for moment calculation is the CENTER OF MASS  = (-7.083730,  1.192699 -0.142054)
             <<<Displacing   2/coordinate 2 (+)>>>
The origin for moment calculation is the CENTER OF MASS  = (-7.082714,  1.193715 -0.142054)
             <<<Displacing   2/coordinate 2 (-)>>>
The origin for moment calculation is the CENTER OF MASS  = (-7.082714,  1.191682 -0.142054)
             <<<Displacing   2/coordinate 3 (+)>>>
The origin for moment calculation is the CENTER OF MASS  = (-7.082714,  1.192699 -0.141038)
             <<<Displacing   2/coordinate 3 (-)>>>
The origin for moment calculation is the CENTER OF MASS  = (-7.082714,  1.192699 -0.143071)
             <<<Displacing   3/coordinate 1 (+)>>>
The origin for moment calculation is the CENTER OF MASS  = (-7.082628,  1.192699 -0.142054)
             <<<Displacing   3/coordinate 1 (-)>>>
The origin for moment calculation is the CENTER OF MASS  = (-7.082799,  1.192699 -0.142054)
             <<<Displacing   3/coordinate 2 (+)>>>
The origin for moment calculation is the CENTER OF MASS  = (-7.082714,  1.192784 -0.142054)
             <<<Displacing   3/coordinate 2 (-)>>>
The origin for moment calculation is the CENTER OF MASS  = (-7.082714,  1.192613 -0.142054)
             <<<Displacing   3/coordinate 3 (+)>>>
The origin for moment calculation is the CENTER OF MASS  = (-7.082714,  1.192699 -0.141969)
             <<<Displacing   3/coordinate 3 (-)>>>
The origin for moment calculation is the CENTER OF MASS  = (-7.082714,  1.192699 -0.142140)
             <<<Displacing   4/coordinate 1 (+)>>>
The origin for moment calculation is the CENTER OF MASS  = (-7.082628,  1.192699 -0.142054)
             <<<Displacing   4/coordinate 1 (-)>>>
The origin for moment calculation is the CENTER OF MASS  = (-7.082799,  1.192699 -0.142054)
             <<<Displacing   4/coordinate 2 (+)>>>
The origin for moment calculation is the CENTER OF MASS  = (-7.082714,  1.192784 -0.142054)
             <<<Displacing   4/coordinate 2 (-)>>>
The origin for moment calculation is the CENTER OF MASS  = (-7.082714,  1.192613 -0.142054)
             <<<Displacing   4/coordinate 3 (+)>>>
The origin for moment calculation is the CENTER OF MASS  = (-7.082714,  1.192699 -0.141969)
             <<<Displacing   4/coordinate 3 (-)>>>
The origin for moment calculation is the CENTER OF MASS  = (-7.082714,  1.192699 -0.142140)
             <<<Displacing   5/coordinate 1 (+)>>>
The origin for moment calculation is the CENTER OF MASS  = (-7.082628,  1.192699 -0.142054)
             <<<Displacing   5/coordinate 1 (-)>>>
The origin for moment calculation is the CENTER OF MASS  = (-7.082799,  1.192699 -0.142054)
             <<<Displacing   5/coordinate 2 (+)>>>
The origin for moment calculation is the CENTER OF MASS  = (-7.082714,  1.192784 -0.142054)
             <<<Displacing   5/coordinate 2 (-)>>>
The origin for moment calculation is the CENTER OF MASS  = (-7.082714,  1.192613 -0.142054)
             <<<Displacing   5/coordinate 3 (+)>>>
The origin for moment calculation is the CENTER OF MASS  = (-7.082714,  1.192699 -0.141969)
             <<<Displacing   5/coordinate 3 (-)>>>
The origin for moment calculation is the CENTER OF MASS  = (-7.082714,  1.192699 -0.142140)
             <<<Displacing   6/coordinate 1 (+)>>>
The origin for moment calculation is the CENTER OF MASS  = (-7.081359,  1.192699 -0.142054)
             <<<Displacing   6/coordinate 1 (-)>>>
The origin for moment calculation is the CENTER OF MASS  = (-7.084068,  1.192699 -0.142054)
             <<<Displacing   6/coordinate 2 (+)>>>
The origin for moment calculation is the CENTER OF MASS  = (-7.082714,  1.194053 -0.142054)
             <<<Displacing   6/coordinate 2 (-)>>>
The origin for moment calculation is the CENTER OF MASS  = (-7.082714,  1.191344 -0.142054)
             <<<Displacing   6/coordinate 3 (+)>>>
The origin for moment calculation is the CENTER OF MASS  = (-7.082714,  1.192699 -0.140700)
             <<<Displacing   6/coordinate 3 (-)>>>
The origin for moment calculation is the CENTER OF MASS  = (-7.082714,  1.192699 -0.143409)
             <<<Displacing   7/coordinate 1 (+)>>>
The origin for moment calculation is the CENTER OF MASS  = (-7.081528,  1.192699 -0.142054)
             <<<Displacing   7/coordinate 1 (-)>>>
The origin for moment calculation is the CENTER OF MASS  = (-7.083899,  1.192699 -0.142054)
             <<<Displacing   7/coordinate 2 (+)>>>
The origin for moment calculation is the CENTER OF MASS  = (-7.082714,  1.193884 -0.142054)
             <<<Displacing   7/coordinate 2 (-)>>>
The origin for moment calculation is the CENTER OF MASS  = (-7.082714,  1.191513 -0.142054)
             <<<Displacing   7/coordinate 3 (+)>>>
The origin for moment calculation is the CENTER OF MASS  = (-7.082714,  1.192699 -0.140869)
             <<<Displacing   7/coordinate 3 (-)>>>
The origin for moment calculation is the CENTER OF MASS  = (-7.082714,  1.192699 -0.143240)
             <<<Displacing   8/coordinate 1 (+)>>>
The origin for moment calculation is the CENTER OF MASS  = (-7.082628,  1.192699 -0.142054)
             <<<Displacing   8/coordinate 1 (-)>>>
The origin for moment calculation is the CENTER OF MASS  = (-7.082799,  1.192699 -0.142054)
             <<<Displacing   8/coordinate 2 (+)>>>
The origin for moment calculation is the CENTER OF MASS  = (-7.082714,  1.192784 -0.142054)
             <<<Displacing   8/coordinate 2 (-)>>>
The origin for moment calculation is the CENTER OF MASS  = (-7.082714,  1.192613 -0.142054)
             <<<Displacing   8/coordinate 3 (+)>>>
The origin for moment calculation is the CENTER OF MASS  = (-7.082714,  1.192699 -0.141969)
             <<<Displacing   8/coordinate 3 (-)>>>
The origin for moment calculation is the CENTER OF MASS  = (-7.082714,  1.192699 -0.142140)
             <<<Displacing   9/coordinate 1 (+)>>>
The origin for moment calculation is the CENTER OF MASS  = (-7.082628,  1.192699 -0.142054)
             <<<Displacing   9/coordinate 1 (-)>>>
The origin for moment calculation is the CENTER OF MASS  = (-7.082799,  1.192699 -0.142054)
             <<<Displacing   9/coordinate 2 (+)>>>
The origin for moment calculation is the CENTER OF MASS  = (-7.082714,  1.192784 -0.142054)
             <<<Displacing   9/coordinate 2 (-)>>>
The origin for moment calculation is the CENTER OF MASS  = (-7.082714,  1.192613 -0.142054)
             <<<Displacing   9/coordinate 3 (+)>>>
The origin for moment calculation is the CENTER OF MASS  = (-7.082714,  1.192699 -0.141969)
             <<<Displacing   9/coordinate 3 (-)>>>
The origin for moment calculation is the CENTER OF MASS  = (-7.082714,  1.192699 -0.142140)

-----------------------
VIBRATIONAL FREQUENCIES
-----------------------

   0:         0.00 cm**-1
   1:         0.00 cm**-1
   2:         0.00 cm**-1
   3:         0.00 cm**-1
   4:         0.00 cm**-1
   5:         0.00 cm**-1
   6:       -94.17 cm**-1 ***imaginary mode***
   7:        37.59 cm**-1
   8:       428.33 cm**-1
   9:       534.77 cm**-1
  10:       556.01 cm**-1
  11:       646.51 cm**-1
  12:       881.38 cm**-1
  13:       991.45 cm**-1
  14:      1061.23 cm**-1
  15:      1129.82 cm**-1
  16:      1347.54 cm**-1
  17:      1419.48 cm**-1
  18:      1458.22 cm**-1
  19:      1479.04 cm**-1
  20:      1612.32 cm**-1
  21:      1798.38 cm**-1
  22:      3057.51 cm**-1
  23:      3140.54 cm**-1
  24:      3143.61 cm**-1
  25:      3574.24 cm**-1
  26:      3711.63 cm**-1


------------
NORMAL MODES
------------

These modes are the cartesian displacements weighted by the diagonal matrix
M(i,i)=1/sqrt(m[i]) where m[i] is the mass of the displaced atom
Thus, these vectors are normalized but *not* orthogonal

                  0          1          2          3          4          5    
      0       0.000000   0.000000   0.000000   0.000000   0.000000   0.000000
      1       0.000000   0.000000   0.000000   0.000000   0.000000   0.000000
      2       0.000000   0.000000   0.000000   0.000000   0.000000   0.000000
      3       0.000000   0.000000   0.000000   0.000000   0.000000   0.000000
      4       0.000000   0.000000   0.000000   0.000000   0.000000   0.000000
      5       0.000000   0.000000   0.000000   0.000000   0.000000   0.000000
      6       0.000000   0.000000   0.000000   0.000000   0.000000   0.000000
      7       0.000000   0.000000   0.000000   0.000000   0.000000   0.000000
      8       0.000000   0.000000   0.000000   0.000000   0.000000   0.000000
      9       0.000000   0.000000   0.000000   0.000000   0.000000   0.000000
     10       0.000000   0.000000   0.000000   0.000000   0.000000   0.000000
     11       0.000000   0.000000   0.000000   0.000000   0.000000   0.000000
     12       0.000000   0.000000   0.000000   0.000000   0.000000   0.000000
     13       0.000000   0.000000   0.000000   0.000000   0.000000   0.000000
     14       0.000000   0.000000   0.000000   0.000000   0.000000   0.000000
     15       0.000000   0.000000   0.000000   0.000000   0.000000   0.000000
     16       0.000000   0.000000   0.000000   0.000000   0.000000   0.000000
     17       0.000000   0.000000   0.000000   0.000000   0.000000   0.000000
     18       0.000000   0.000000   0.000000   0.000000   0.000000   0.000000
     19       0.000000   0.000000   0.000000   0.000000   0.000000   0.000000
     20       0.000000   0.000000   0.000000   0.000000   0.000000   0.000000
     21       0.000000   0.000000   0.000000   0.000000   0.000000   0.000000
     22       0.000000   0.000000   0.000000   0.000000   0.000000   0.000000
     23       0.000000   0.000000   0.000000   0.000000   0.000000   0.000000
     24       0.000000   0.000000   0.000000   0.000000   0.000000   0.000000
     25       0.000000   0.000000   0.000000   0.000000   0.000000   0.000000
     26       0.000000   0.000000   0.000000   0.000000   0.000000   0.000000
                  6          7          8          9         10         11    
      0       0.000937  -0.001543   0.041399   0.020933   0.151585   0.021435
      1      -0.000671   0.000973  -0.096811  -0.005647   0.148449  -0.022246
      2       0.000885  -0.001396  -0.144712   0.011783  -0.034965   0.019396
      3       0.010963  -0.016168  -0.074382  -0.106521   0.085119   0.118550
      4      -0.008993   0.013278   0.025370   0.097731   0.104167  -0.101297
      5       0.009083  -0.013433   0.108086  -0.092462   0.043091   0.101479
      6       0.017475  -0.010834  -0.046780  -0.098326   0.130334   0.141136
      7       0.004461  -0.010334  -0.317476  -0.294297   0.093573   0.272065
      8      -0.590348   0.139881  -0.267896   0.006753  -0.089453  -0.062421
      9      -0.420279   0.106796  -0.034383   0.236167   0.095347  -0.261754
     10       0.331938  -0.071502  -0.317135   0.191035   0.028386  -0.180960
     11       0.248802  -0.058797  -0.260431   0.095552  -0.096435  -0.037592
     12       0.333831  -0.079435   0.376288   0.172163   0.280717  -0.108633
     13      -0.279309   0.066538   0.142503  -0.123589   0.273614   0.087745
     14       0.282811  -0.067655  -0.296837   0.132535  -0.117696  -0.091540
     15      -0.034777   0.001163  -0.114985   0.015659  -0.084935  -0.057785
     16       0.029034  -0.000808  -0.069288  -0.025781  -0.231809   0.050719
     17      -0.029648   0.001386   0.068434   0.009789  -0.138189  -0.047834
     18       0.044036   0.074476   0.107017   0.018999  -0.100774  -0.037259
     19      -0.036945  -0.062184   0.146075  -0.019085   0.027721   0.034214
     20       0.037575   0.062938   0.019322   0.025692   0.137272  -0.034587
     21      -0.094705  -0.347365   0.223063   0.462499  -0.333126   0.383721
     22       0.079673   0.292115   0.040571  -0.390632   0.239450  -0.319171
     23      -0.079494  -0.298487  -0.219706   0.430870   0.501716   0.322747
     24      -0.038052  -0.511481   0.212793  -0.265208  -0.245347  -0.387576
     25       0.030936   0.430289   0.372717   0.194643  -0.351039   0.331986
     26      -0.032105  -0.434819   0.126615  -0.216749  -0.009142  -0.331668
                 12         13         14         15         16         17    
      0      -0.199807   0.048487  -0.105371   0.035956  -0.056536   0.118682
      1      -0.200218  -0.068738   0.088018  -0.035688  -0.023149   0.150352
      2       0.036439  -0.122854  -0.090654  -0.077646   0.044486   0.009668
      3       0.099421   0.000824   0.123484  -0.022033  -0.071260  -0.064847
      4       0.084949  -0.025715  -0.104687   0.005209  -0.189933  -0.177195
      5      -0.034628  -0.029744   0.104759   0.030093  -0.105459  -0.099078
      6      -0.259199   0.188169  -0.341190   0.110406   0.147052  -0.170258
      7      -0.337554   0.299184  -0.494586   0.163070   0.411296  -0.537514
      8      -0.035332   0.194798   0.187822   0.120356  -0.242935   0.021196
      9      -0.251012   0.095580   0.540134   0.047597   0.478956  -0.415101
     10      -0.341269   0.364936   0.338209   0.214874   0.130934  -0.324057
     11      -0.032485   0.123761  -0.021953   0.067210   0.041734  -0.184936
     12      -0.150489  -0.487761   0.223828  -0.232140   0.389306  -0.312050
     13      -0.172650  -0.452460  -0.195708  -0.226277   0.305685  -0.161241
     14       0.005211   0.126164   0.194690   0.050219  -0.159451   0.197424
     15       0.093111  -0.000432  -0.024509  -0.084330   0.014485   0.002490
     16       0.004547  -0.026680   0.020526   0.006583   0.021829   0.018798
     17      -0.103883  -0.025457  -0.020838   0.106260   0.004958   0.015929
     18       0.045915  -0.036551  -0.014052   0.110797   0.026384   0.020411
     19       0.145087   0.073574   0.012590   0.028801   0.077291   0.057367
     20       0.090180   0.116447  -0.011043  -0.101577   0.045814   0.032811
     21      -0.150230   0.059120  -0.014124  -0.147529  -0.105204  -0.093592
     22       0.334565  -0.010273   0.012588   0.259418   0.203259   0.165875
     23       0.495268  -0.075691  -0.011393   0.425165   0.323222   0.272032
     24      -0.108809   0.072076  -0.040207  -0.145382   0.016133   0.026373
     25      -0.197852   0.325166   0.037386  -0.552619   0.067352   0.081262
     26      -0.058537   0.235192  -0.033057  -0.371394   0.048649   0.050922
                 18         19         20         21         22         23    
      0       0.007137  -0.033393  -0.006558   0.052214   0.034580  -0.063829
      1      -0.027626   0.029877  -0.010253   0.025104   0.034912   0.055814
      2      -0.040191  -0.026422  -0.002192  -0.036386  -0.005864  -0.038201
      3      -0.021081  -0.013696   0.031026  -0.490225  -0.001425  -0.000784
      4      -0.030283   0.012603   0.051156  -0.058339  -0.001784   0.000449
      5      -0.006800  -0.012406   0.013674   0.518902  -0.000064  -0.000095
      6      -0.027997   0.105846   0.002477   0.081354  -0.542840   0.696396
      7      -0.051973   0.354342   0.008694   0.103703   0.234968  -0.286771
      8       0.629784   0.291809  -0.014142  -0.115358  -0.017156   0.013039
      9      -0.482968  -0.021932   0.016564   0.164758   0.078141   0.068813
     10       0.295176  -0.422220  -0.001332   0.031437  -0.287582  -0.310605
     11       0.222041  -0.275203  -0.001292  -0.042944   0.508312   0.553336
     12       0.377088   0.447586  -0.025350  -0.215734   0.068134   0.005117
     13       0.218370  -0.398217  -0.023914  -0.149362  -0.344635  -0.073592
     14      -0.170673   0.401590   0.003268   0.107974  -0.420425  -0.105527
     15       0.017485   0.000207  -0.016917   0.290148   0.000050  -0.000142
     16       0.006406  -0.001015  -0.003785   0.032582   0.000134   0.000172
     17      -0.014084   0.001518   0.016349  -0.309322   0.000052  -0.000318
     18       0.002638   0.001524  -0.001819   0.050574   0.000088   0.000155
     19       0.004776  -0.001420  -0.088215  -0.013415   0.000003  -0.000180
     20       0.001864   0.001202  -0.084663  -0.072455  -0.000133   0.000074
     21      -0.026048   0.008418  -0.307460  -0.138565  -0.000954   0.001117
     22       0.031445  -0.007274   0.195699   0.150277   0.000090  -0.000374
     23       0.062753   0.006739   0.552060   0.310470   0.001171   0.000591
     24       0.011889  -0.003290   0.315998   0.019381   0.000445  -0.001446
     25       0.028968   0.003025   0.619353  -0.070776   0.000245   0.000690
     26       0.013670  -0.003069   0.240257  -0.093245  -0.000226  -0.001088
                  24         25         26    
      0       0.022969   0.000453   0.000272
      1      -0.032287   0.000200   0.000301
      2      -0.085001  -0.000422  -0.000002
      3       0.001601   0.000051  -0.000844
      4      -0.000011   0.001315  -0.001054
      5      -0.002118   0.001236  -0.000034
      6      -0.252501  -0.001132   0.000044
      7       0.103203   0.001650   0.000313
      8      -0.020897   0.000593   0.000129
      9       0.065257   0.000647   0.000071
     10      -0.249316   0.000038   0.000427
     11       0.414504   0.002091   0.000049
     12      -0.095220  -0.000587  -0.000090
     13       0.524873   0.001712   0.000039
     14       0.627329   0.002468   0.000096
     15      -0.000585  -0.000672   0.000463
     16       0.000141   0.000073  -0.000022
     17       0.000741   0.000898  -0.000572
     18      -0.000086  -0.004296  -0.066739
     19       0.000276  -0.040699  -0.036709
     20       0.000411  -0.035188   0.042269
     21      -0.002176   0.498593   0.418755
     22      -0.002212   0.574313   0.486655
     23       0.000709  -0.019362  -0.011629
     24       0.002360  -0.433157   0.508072
     25       0.002239  -0.031380   0.031997
     26      -0.001030   0.479216  -0.566501


-----------
IR SPECTRUM
-----------

 Mode    freq (cm**-1)   T**2         TX         TY         TZ
-------------------------------------------------------------------
   7:        37.59  316.793360  (-11.338897   9.536558  -9.862901)
   8:       428.33    7.433000  (  2.071760   1.469899  -0.990054)
   9:       534.77    2.061363  (  1.044777  -0.524075   0.833757)
  10:       556.01   27.315975  (  1.516877   4.384241   2.406968)
  11:       646.51    9.153442  (  1.876201  -1.816310   1.527851)
  12:       881.38    1.031461  (  0.511185   0.861675   0.166333)
  13:       991.45   13.383784  (  0.963580  -1.928012  -2.956022)
  14:      1061.23    8.619619  (  1.914354  -1.588759   1.559074)
  15:      1129.82    2.232016  ( -0.418554  -1.252042  -0.699443)
  16:      1347.54  118.387363  (  0.344803  -7.472091  -7.901666)
  17:      1419.48  159.095943  ( -4.192886 -10.523146  -5.547887)
  18:      1458.22   19.613768  ( -2.691384   0.048064   3.516804)
  19:      1479.04   11.737831  (  2.286138  -1.919139   1.681758)
  20:      1612.32  197.944978  (  1.708954  10.917141   8.708644)
  21:      1798.38  568.679623  (-14.052573   2.540298  19.098474)
  22:      3057.51    3.541102  (  1.145035   1.492887   0.035865)
  23:      3140.54    6.942107  ( -1.873372   1.671100  -0.800005)
  24:      3143.61   15.153744  (  0.793098  -1.769544  -3.375419)
  25:      3574.24   75.385953  ( -0.107587   6.094715   6.182947)
  26:      3711.63   82.340461  (  6.910986   3.451334  -4.760991)

The first frequency considered to be a vibration is 7
The total number of vibrations considered is 20


--------------------------
THERMOCHEMISTRY AT 298.15K
--------------------------

Temperature         ... 298.15 K
Pressure            ... 1.00 atm
Total Mass          ... 59.07 AMU

Throughout the following assumptions are being made:
  (1) The electronic state is orbitally nondegenerate
  (2) There are no thermally accessible electronically excited states
  (3) Hindered rotations indicated by low frequency modes are not
      treated as such but are treated as vibrations and this may
      cause some error
  (4) All equations used are the standard statistical mechanics
      equations for an ideal gas
  (5) All vibrations are strictly harmonic

freq.      37.59  E(vib)   ...       0.54 
freq.     428.33  E(vib)   ...       0.18 
freq.     534.77  E(vib)   ...       0.13 
freq.     556.01  E(vib)   ...       0.12 
freq.     646.51  E(vib)   ...       0.09 
freq.     881.38  E(vib)   ...       0.04 
freq.     991.45  E(vib)   ...       0.02 
freq.    1061.23  E(vib)   ...       0.02 
freq.    1129.82  E(vib)   ...       0.01 
freq.    1347.54  E(vib)   ...       0.01 
freq.    1419.48  E(vib)   ...       0.00 
freq.    1458.22  E(vib)   ...       0.00 
freq.    1479.04  E(vib)   ...       0.00 
freq.    1612.32  E(vib)   ...       0.00 
freq.    1798.38  E(vib)   ...       0.00 
freq.    3057.51  E(vib)   ...       0.00 
freq.    3140.54  E(vib)   ...       0.00 
freq.    3143.61  E(vib)   ...       0.00 
freq.    3574.24  E(vib)   ...       0.00 
freq.    3711.63  E(vib)   ...       0.00 

------------
INNER ENERGY
------------

The inner energy is: U= E(el) + E(ZPE) + E(vib) + E(rot) + E(trans)
    E(el)   - is the total energy from the electronic structure calculation
              = E(kin-el) + E(nuc-el) + E(el-el) + E(nuc-nuc)
    E(ZPE)  - the the zero temperature vibrational energy from the frequency calculation
    E(vib)  - the the finite temperature correction to E(ZPE) due to population
              of excited vibrational states
    E(rot)  - is the rotational thermal energy
    E(trans)- is the translational thermal energy

Summary of contributions to the inner energy U:
Electronic energy                ...   -209.11555787 Eh
Zero point energy                ...      0.07292329 Eh      45.76 kcal/mol
Thermal vibrational correction   ...      0.00184458 Eh       1.16 kcal/mol
Thermal rotational correction    ...      0.00141627 Eh       0.89 kcal/mol
Thermal translational correction ...      0.00141627 Eh       0.89 kcal/mol
-----------------------------------------------------------------------
Total thermal energy                   -209.03795745 Eh


Summary of corrections to the electronic energy:
(perhaps to be used in another calculation)
Total thermal correction                  0.00467713 Eh       2.93 kcal/mol
Non-thermal (ZPE) correction              0.07292329 Eh      45.76 kcal/mol
-----------------------------------------------------------------------
Total correction                          0.07760042 Eh      48.69 kcal/mol


--------
ENTHALPY
--------

The enthalpy is H = U + kB*T
                kB is Boltzmann's constant
Total free energy                 ...   -209.03795745 Eh 
Thermal Enthalpy correction       ...      0.00094421 Eh       0.59 kcal/mol
-----------------------------------------------------------------------
Total Enthalpy                    ...   -209.03701324 Eh


Vibrational entropy computed according to the QRRHO of S. Grimme
Chem.Eur.J. 2012 18 9955


-------
ENTROPY
-------

The entropy contributions are T*S = T*(S(el)+S(vib)+S(rot)+S(trans)
     S(el)   - electronic entropy
     S(vib)  - vibrational entropy
     S(rot)  - rotational entropy
     S(trans)- translational entropy
The entropies will be listed as mutliplied by the temperature to get
units of energy

Electronic entropy                ...      0.00000000 Eh      0.00 kcal/mol
Vibrational entropy               ...      0.00316537 Eh      1.99 kcal/mol
Rotational entropy                ...      0.01033037 Eh      6.48 kcal/mol
Translational entropy             ...      0.01812560 Eh     11.37 kcal/mol
-----------------------------------------------------------------------
Final entropy term                ...      0.03162134 Eh     19.84 kcal/mol


CAUTION: The rotational entropy is not quite correctly treated here
         because it includes a symmetry number that is not yet correctly
         implemented in ORCA!
For a nonlinear molecule the correct rotational entropy is:
    S(rot) = R*(ln(qrot/sn)+1.5)
    R    = 8.31441 J/mol/K = 1.987191683e-3 kcal/mol/K
    qrot = 37786.1720929
    sn is the rotational symmetry number. We have assumed 3 here
       if it is different for your molecule then you should correct
       the printed rotational entropy by manually evaluating the equation
       as given above

For convenience we print out the resulting values for sn=1 - 12:
 sn= 1  qrot/sn=   37786.1721 T*S(rot)=     7.13 kcal/mol T*S(tot)=    20.49 kcal/mol
 sn= 2  qrot/sn=   18893.0860 T*S(rot)=     6.72 kcal/mol T*S(tot)=    20.08 kcal/mol
 sn= 3  qrot/sn=   12595.3907 T*S(rot)=     6.48 kcal/mol T*S(tot)=    19.84 kcal/mol
 sn= 4  qrot/sn=    9446.5430 T*S(rot)=     6.31 kcal/mol T*S(tot)=    19.67 kcal/mol
 sn= 5  qrot/sn=    7557.2344 T*S(rot)=     6.18 kcal/mol T*S(tot)=    19.54 kcal/mol
 sn= 6  qrot/sn=    6297.6953 T*S(rot)=     6.07 kcal/mol T*S(tot)=    19.43 kcal/mol
 sn= 7  qrot/sn=    5398.0246 T*S(rot)=     5.98 kcal/mol T*S(tot)=    19.34 kcal/mol
 sn= 8  qrot/sn=    4723.2715 T*S(rot)=     5.90 kcal/mol T*S(tot)=    19.26 kcal/mol
 sn= 9  qrot/sn=    4198.4636 T*S(rot)=     5.83 kcal/mol T*S(tot)=    19.19 kcal/mol
 sn=10  qrot/sn=    3778.6172 T*S(rot)=     5.77 kcal/mol T*S(tot)=    19.13 kcal/mol
 sn=11  qrot/sn=    3435.1066 T*S(rot)=     5.71 kcal/mol T*S(tot)=    19.07 kcal/mol
 sn=12  qrot/sn=    3148.8477 T*S(rot)=     5.66 kcal/mol T*S(tot)=    19.02 kcal/mol


-------------------
GIBBS FREE ENTHALPY
-------------------

The Gibbs free enthalpy is G = H - T*S

Total enthalpy                    ...   -209.03701324 Eh 
Total entropy correction          ...     -0.03162134 Eh    -19.84 kcal/mol
-----------------------------------------------------------------------
Final Gibbs free enthalpy         ...   -209.06863458 Eh

For completeness - the Gibbs free enthalpy minus the electronic energy
G-E(el)                           ...      0.04692329 Eh     29.44 kcal/mol


Total Time for Numerical Frequencies  :      1510.472 sec
Time for Reference State(s)           :        18.598 sec
Time for Displacements                :      1491.606 sec

Timings for individual modules:

Sum of individual times         ...       64.588 sec (=   1.076 min)
GTO integral calculation        ...        1.257 sec (=   0.021 min)   1.9 %
SCF iterations                  ...       42.461 sec (=   0.708 min)  65.7 %
SCF Gradient evaluation         ...       20.870 sec (=   0.348 min)  32.3 %
                             ****ORCA TERMINATED NORMALLY****
TOTAL RUN TIME: 0 days 0 hours 25 minutes 56 seconds 954 msec
